<?xml version="1.0"?>
<!-- File generated by Amaru Finite Element Code -->
<VTKFile type="UnstructuredGrid" version="1.0" byte_order="LittleEndian" header_type="UInt64" compressor="vtkZLibDataCompressor">
   <UnstructuredGrid>
      <Piece NumberOfPoints="6" NumberOfCells="10">
         <Points>
            <DataArray type="Float64" Name="Points" NumberOfComponents="3" format="ascii">
               0.0000000000e+00    0.0000000000e+00    0.0000000000e+00
               9.0000000000e+00    0.0000000000e+00    0.0000000000e+00
               1.8000000000e+01    0.0000000000e+00    0.0000000000e+00
               0.0000000000e+00    9.0000000000e+00    0.0000000000e+00
               9.0000000000e+00    9.0000000000e+00    0.0000000000e+00
               1.8000000000e+01    9.0000000000e+00    0.0000000000e+00
            </DataArray>
         </Points>
         <Cells>
            <DataArray type="Int32" Name="connectivity" NumberOfComponents="1" format="ascii">
               0  
               1  
               0  
               4  
               1  
               2  
               1  
               5  
               1  
               4  
               1  
               3  
               2  
               5  
               2  
               4  
               3  
               4  
               4  
               5  
            </DataArray>
            <DataArray type="Int32" Name="offsets" NumberOfComponents="1" format="ascii">
               2  
               4  
               6  
               8  
               10  
               12  
               14  
               16  
               18  
               20  
            </DataArray>
            <DataArray type="Int32" Name="types" NumberOfComponents="1" format="ascii">
               3  
               3  
               3  
               3  
               3  
               3  
               3  
               3  
               3  
               3  
            </DataArray>
         </Cells>
         <PointData>
            <DataArray type="Int64" Name="node-id" NumberOfComponents="1" format="ascii">
               1  
               2  
               3  
               4  
               5  
               6  
            </DataArray>
            <DataArray type="Float64" Name="ux" NumberOfComponents="1" format="ascii">
               0.0000000000e+00
               0.0000000000e+00
               0.0000000000e+00
               0.0000000000e+00
               0.0000000000e+00
               0.0000000000e+00
            </DataArray>
            <DataArray type="Float64" Name="fx" NumberOfComponents="1" format="ascii">
               0.0000000000e+00
               0.0000000000e+00
               0.0000000000e+00
               0.0000000000e+00
               0.0000000000e+00
               0.0000000000e+00
            </DataArray>
            <DataArray type="Float64" Name="uy" NumberOfComponents="1" format="ascii">
               0.0000000000e+00
               0.0000000000e+00
               0.0000000000e+00
               0.0000000000e+00
               0.0000000000e+00
               0.0000000000e+00
            </DataArray>
            <DataArray type="Float64" Name="fy" NumberOfComponents="1" format="ascii">
               0.0000000000e+00
               0.0000000000e+00
               0.0000000000e+00
               0.0000000000e+00
               0.0000000000e+00
               0.0000000000e+00
            </DataArray>
            <DataArray type="Float64" Name="U" NumberOfComponents="3" format="ascii">
               0.0000000000e+00    0.0000000000e+00    0.0000000000e+00
               0.0000000000e+00    0.0000000000e+00    0.0000000000e+00
               0.0000000000e+00    0.0000000000e+00    0.0000000000e+00
               0.0000000000e+00    0.0000000000e+00    0.0000000000e+00
               0.0000000000e+00    0.0000000000e+00    0.0000000000e+00
               0.0000000000e+00    0.0000000000e+00    0.0000000000e+00
            </DataArray>
         </PointData>
         <CellData>
            <DataArray type="Int64" Name="elem-id" NumberOfComponents="1" format="ascii">
               1  
               2  
               3  
               4  
               5  
               6  
               7  
               8  
               9  
               10  
            </DataArray>
            <DataArray type="Int64" Name="cell-type" NumberOfComponents="1" format="ascii">
               3  
               3  
               3  
               3  
               3  
               3  
               3  
               3  
               3  
               3  
            </DataArray>
            <DataArray type="Float64" Name="sX" NumberOfComponents="1" format="ascii">
               0.0000000000e+00
               0.0000000000e+00
               0.0000000000e+00
               0.0000000000e+00
               0.0000000000e+00
               0.0000000000e+00
               0.0000000000e+00
               0.0000000000e+00
               0.0000000000e+00
               0.0000000000e+00
            </DataArray>
            <DataArray type="Float64" Name="eX" NumberOfComponents="1" format="ascii">
               0.0000000000e+00
               0.0000000000e+00
               0.0000000000e+00
               0.0000000000e+00
               0.0000000000e+00
               0.0000000000e+00
               0.0000000000e+00
               0.0000000000e+00
               0.0000000000e+00
               0.0000000000e+00
            </DataArray>
         </CellData>
      </Piece>
   </UnstructuredGrid>
</VTKFile>
