<?xml version="1.0"?>
<!-- File generated by Amaru Finite Element Code -->
<VTKFile type="UnstructuredGrid" version="1.0" byte_order="LittleEndian" header_type="UInt64" compressor="vtkZLibDataCompressor">
   <UnstructuredGrid>
      <Piece NumberOfPoints="6" NumberOfCells="10">
         <Points>
            <DataArray type="Float64" Name="Points" NumberOfComponents="3" format="ascii">
               0.0000000000e+00    0.0000000000e+00    0.0000000000e+00
               9.0000000000e+00    0.0000000000e+00    0.0000000000e+00
               1.8000000000e+01    0.0000000000e+00    0.0000000000e+00
               0.0000000000e+00    9.0000000000e+00    0.0000000000e+00
               9.0000000000e+00    9.0000000000e+00    0.0000000000e+00
               1.8000000000e+01    9.0000000000e+00    0.0000000000e+00
            </DataArray>
         </Points>
         <Cells>
            <DataArray type="Int32" Name="connectivity" NumberOfComponents="1" format="ascii">
               0  
               1  
               0  
               4  
               1  
               2  
               1  
               5  
               1  
               4  
               1  
               3  
               2  
               5  
               2  
               4  
               3  
               4  
               4  
               5  
            </DataArray>
            <DataArray type="Int32" Name="offsets" NumberOfComponents="1" format="ascii">
               2  
               4  
               6  
               8  
               10  
               12  
               14  
               16  
               18  
               20  
            </DataArray>
            <DataArray type="Int32" Name="types" NumberOfComponents="1" format="ascii">
               3  
               3  
               3  
               3  
               3  
               3  
               3  
               3  
               3  
               3  
            </DataArray>
         </Cells>
         <PointData>
            <DataArray type="Int64" Name="node-id" NumberOfComponents="1" format="ascii">
               1  
               2  
               3  
               4  
               5  
               6  
            </DataArray>
            <DataArray type="Float64" Name="ux" NumberOfComponents="1" format="ascii">
               0.0000000000e+00
               -2.7954231482e-03
               -3.6133525427e-03
               0.0000000000e+00
               2.6687895879e-03
               3.2169134356e-03
            </DataArray>
            <DataArray type="Float64" Name="fx" NumberOfComponents="1" format="ascii">
               1.3500000000e+03
               1.7053025658e-13
               -1.1368683772e-13
               -1.3500000000e+03
               3.6948222260e-13
               0.0000000000e+00
            </DataArray>
            <DataArray type="Float64" Name="uy" NumberOfComponents="1" format="ascii">
               0.0000000000e+00
               -6.8382918835e-03
               -1.4949080534e-02
               0.0000000000e+00
               -6.3534844667e-03
               -1.4400956221e-02
            </DataArray>
            <DataArray type="Float64" Name="fy" NumberOfComponents="1" format="ascii">
               4.2914245605e+02
               -4.5000000000e+02
               -4.5000000000e+02
               4.7085754395e+02
               -5.6843418861e-14
               9.3791641120e-13
            </DataArray>
            <DataArray type="Float64" Name="U" NumberOfComponents="3" format="ascii">
               0.0000000000e+00    0.0000000000e+00    0.0000000000e+00
               -2.7954231482e-03   -6.8382918835e-03    0.0000000000e+00
               -3.6133525427e-03   -1.4949080534e-02    0.0000000000e+00
               0.0000000000e+00    0.0000000000e+00    0.0000000000e+00
               2.6687895879e-03   -6.3534844667e-03    0.0000000000e+00
               3.2169134356e-03   -1.4400956221e-02    0.0000000000e+00
            </DataArray>
         </PointData>
         <CellData>
            <DataArray type="Int64" Name="elem-id" NumberOfComponents="1" format="ascii">
               1  
               2  
               3  
               4  
               5  
               6  
               7  
               8  
               9  
               10  
            </DataArray>
            <DataArray type="Int64" Name="cell-type" NumberOfComponents="1" format="ascii">
               3  
               3  
               3  
               3  
               3  
               3  
               3  
               3  
               3  
               3  
            </DataArray>
            <DataArray type="Float64" Name="sX" NumberOfComponents="1" format="ascii">
               -2.1415292969e+04
               -1.4113931641e+04
               -6.2660268555e+03
               -5.9384091797e+03
               3.7140300293e+03
               1.5485886719e+04
               4.1990893555e+03
               8.8615000000e+03
               2.0445173828e+04
               4.1990893555e+03
            </DataArray>
            <DataArray type="Float64" Name="eX" NumberOfComponents="1" format="ascii">
               -3.1060256879e-04
               -2.0470528398e-04
               -9.0881039796e-05
               -8.6129344709e-05
               5.3867450333e-05
               2.2460380569e-04
               6.0902646510e-05
               1.2852519285e-04
               2.9653217643e-04
               6.0902646510e-05
            </DataArray>
         </CellData>
      </Piece>
   </UnstructuredGrid>
</VTKFile>
