<?xml version="1.0"?>
<VTKFile type="UnstructuredGrid" version="0.1" byte_order="LittleEndian">
   <UnstructuredGrid>
      <Piece NumberOfPoints="189" NumberOfCells="80">
         <Points>
            <DataArray type="Float64" NumberOfComponents="3" format="ascii">
               0.0000000e+00     0.0000000e+00     0.0000000e+00
               0.0000000e+00     5.0000000e-02     0.0000000e+00
               0.0000000e+00     0.0000000e+00     5.0000000e-02
               5.0000000e-02     0.0000000e+00     0.0000000e+00
               0.0000000e+00     1.0000000e-01     0.0000000e+00
               0.0000000e+00     0.0000000e+00     1.0000000e-01
               1.0000000e-01     0.0000000e+00     0.0000000e+00
               5.0000000e-02     0.0000000e+00     5.0000000e-02
               0.0000000e+00     5.0000000e-02     5.0000000e-02
               5.0000000e-02     5.0000000e-02     0.0000000e+00
               1.5000000e-01     0.0000000e+00     0.0000000e+00
               5.0000000e-02     1.0000000e-01     0.0000000e+00
               5.0000000e-02     0.0000000e+00     1.0000000e-01
               0.0000000e+00     1.0000000e-01     5.0000000e-02
               0.0000000e+00     5.0000000e-02     1.0000000e-01
               1.0000000e-01     5.0000000e-02     0.0000000e+00
               1.0000000e-01     0.0000000e+00     5.0000000e-02
               5.0000000e-02     5.0000000e-02     5.0000000e-02
               0.0000000e+00     1.0000000e-01     1.0000000e-01
               2.0000000e-01     0.0000000e+00     0.0000000e+00
               1.0000000e-01     1.0000000e-01     0.0000000e+00
               1.0000000e-01     0.0000000e+00     1.0000000e-01
               1.5000000e-01     0.0000000e+00     5.0000000e-02
               1.5000000e-01     5.0000000e-02     0.0000000e+00
               5.0000000e-02     5.0000000e-02     1.0000000e-01
               5.0000000e-02     1.0000000e-01     5.0000000e-02
               1.0000000e-01     5.0000000e-02     5.0000000e-02
               2.5000000e-01     0.0000000e+00     0.0000000e+00
               5.0000000e-02     1.0000000e-01     1.0000000e-01
               1.5000000e-01     1.0000000e-01     0.0000000e+00
               1.5000000e-01     0.0000000e+00     1.0000000e-01
               2.0000000e-01     0.0000000e+00     5.0000000e-02
               2.0000000e-01     5.0000000e-02     0.0000000e+00
               1.0000000e-01     1.0000000e-01     5.0000000e-02
               1.0000000e-01     5.0000000e-02     1.0000000e-01
               1.5000000e-01     5.0000000e-02     5.0000000e-02
               2.0000000e-01     1.0000000e-01     0.0000000e+00
               3.0000000e-01     0.0000000e+00     0.0000000e+00
               1.0000000e-01     1.0000000e-01     1.0000000e-01
               2.0000000e-01     0.0000000e+00     1.0000000e-01
               2.5000000e-01     0.0000000e+00     5.0000000e-02
               2.5000000e-01     5.0000000e-02     0.0000000e+00
               1.5000000e-01     5.0000000e-02     1.0000000e-01
               1.5000000e-01     1.0000000e-01     5.0000000e-02
               2.0000000e-01     5.0000000e-02     5.0000000e-02
               1.5000000e-01     1.0000000e-01     1.0000000e-01
               3.5000000e-01     0.0000000e+00     0.0000000e+00
               2.5000000e-01     0.0000000e+00     1.0000000e-01
               2.5000000e-01     1.0000000e-01     0.0000000e+00
               3.0000000e-01     0.0000000e+00     5.0000000e-02
               2.0000000e-01     5.0000000e-02     1.0000000e-01
               2.0000000e-01     1.0000000e-01     5.0000000e-02
               3.0000000e-01     5.0000000e-02     0.0000000e+00
               2.5000000e-01     5.0000000e-02     5.0000000e-02
               3.0000000e-01     1.0000000e-01     0.0000000e+00
               3.0000000e-01     0.0000000e+00     1.0000000e-01
               4.0000000e-01     0.0000000e+00     0.0000000e+00
               2.0000000e-01     1.0000000e-01     1.0000000e-01
               3.5000000e-01     5.0000000e-02     0.0000000e+00
               3.5000000e-01     0.0000000e+00     5.0000000e-02
               2.5000000e-01     5.0000000e-02     1.0000000e-01
               2.5000000e-01     1.0000000e-01     5.0000000e-02
               3.0000000e-01     5.0000000e-02     5.0000000e-02
               3.5000000e-01     1.0000000e-01     0.0000000e+00
               4.5000000e-01     0.0000000e+00     0.0000000e+00
               2.5000000e-01     1.0000000e-01     1.0000000e-01
               3.5000000e-01     0.0000000e+00     1.0000000e-01
               3.0000000e-01     5.0000000e-02     1.0000000e-01
               4.0000000e-01     0.0000000e+00     5.0000000e-02
               4.0000000e-01     5.0000000e-02     0.0000000e+00
               3.0000000e-01     1.0000000e-01     5.0000000e-02
               3.5000000e-01     5.0000000e-02     5.0000000e-02
               4.0000000e-01     1.0000000e-01     0.0000000e+00
               3.0000000e-01     1.0000000e-01     1.0000000e-01
               5.0000000e-01     0.0000000e+00     0.0000000e+00
               4.0000000e-01     0.0000000e+00     1.0000000e-01
               3.5000000e-01     1.0000000e-01     5.0000000e-02
               4.5000000e-01     5.0000000e-02     0.0000000e+00
               3.5000000e-01     5.0000000e-02     1.0000000e-01
               4.5000000e-01     0.0000000e+00     5.0000000e-02
               4.0000000e-01     5.0000000e-02     5.0000000e-02
               3.5000000e-01     1.0000000e-01     1.0000000e-01
               4.5000000e-01     0.0000000e+00     1.0000000e-01
               4.5000000e-01     1.0000000e-01     0.0000000e+00
               5.5000000e-01     0.0000000e+00     0.0000000e+00
               5.0000000e-01     5.0000000e-02     0.0000000e+00
               4.0000000e-01     1.0000000e-01     5.0000000e-02
               5.0000000e-01     0.0000000e+00     5.0000000e-02
               4.0000000e-01     5.0000000e-02     1.0000000e-01
               4.5000000e-01     5.0000000e-02     5.0000000e-02
               5.0000000e-01     0.0000000e+00     1.0000000e-01
               6.0000000e-01     0.0000000e+00     0.0000000e+00
               4.0000000e-01     1.0000000e-01     1.0000000e-01
               5.0000000e-01     1.0000000e-01     0.0000000e+00
               5.5000000e-01     5.0000000e-02     0.0000000e+00
               5.5000000e-01     0.0000000e+00     5.0000000e-02
               4.5000000e-01     1.0000000e-01     5.0000000e-02
               4.5000000e-01     5.0000000e-02     1.0000000e-01
               5.0000000e-01     5.0000000e-02     5.0000000e-02
               4.5000000e-01     1.0000000e-01     1.0000000e-01
               5.5000000e-01     1.0000000e-01     0.0000000e+00
               6.5000000e-01     0.0000000e+00     0.0000000e+00
               5.5000000e-01     0.0000000e+00     1.0000000e-01
               6.0000000e-01     5.0000000e-02     0.0000000e+00
               5.0000000e-01     1.0000000e-01     5.0000000e-02
               6.0000000e-01     0.0000000e+00     5.0000000e-02
               5.0000000e-01     5.0000000e-02     1.0000000e-01
               5.5000000e-01     5.0000000e-02     5.0000000e-02
               6.0000000e-01     1.0000000e-01     0.0000000e+00
               5.0000000e-01     1.0000000e-01     1.0000000e-01
               7.0000000e-01     0.0000000e+00     0.0000000e+00
               6.0000000e-01     0.0000000e+00     1.0000000e-01
               6.5000000e-01     5.0000000e-02     0.0000000e+00
               5.5000000e-01     1.0000000e-01     5.0000000e-02
               6.5000000e-01     0.0000000e+00     5.0000000e-02
               5.5000000e-01     5.0000000e-02     1.0000000e-01
               6.0000000e-01     5.0000000e-02     5.0000000e-02
               6.5000000e-01     1.0000000e-01     0.0000000e+00
               7.5000000e-01     0.0000000e+00     0.0000000e+00
               5.5000000e-01     1.0000000e-01     1.0000000e-01
               6.5000000e-01     0.0000000e+00     1.0000000e-01
               7.0000000e-01     0.0000000e+00     5.0000000e-02
               7.0000000e-01     5.0000000e-02     0.0000000e+00
               6.0000000e-01     1.0000000e-01     5.0000000e-02
               6.0000000e-01     5.0000000e-02     1.0000000e-01
               6.5000000e-01     5.0000000e-02     5.0000000e-02
               6.0000000e-01     1.0000000e-01     1.0000000e-01
               7.0000000e-01     0.0000000e+00     1.0000000e-01
               7.0000000e-01     1.0000000e-01     0.0000000e+00
               8.0000000e-01     0.0000000e+00     0.0000000e+00
               7.5000000e-01     5.0000000e-02     0.0000000e+00
               7.5000000e-01     0.0000000e+00     5.0000000e-02
               6.5000000e-01     5.0000000e-02     1.0000000e-01
               6.5000000e-01     1.0000000e-01     5.0000000e-02
               7.0000000e-01     5.0000000e-02     5.0000000e-02
               7.5000000e-01     1.0000000e-01     0.0000000e+00
               8.5000000e-01     0.0000000e+00     0.0000000e+00
               6.5000000e-01     1.0000000e-01     1.0000000e-01
               7.5000000e-01     0.0000000e+00     1.0000000e-01
               8.0000000e-01     5.0000000e-02     0.0000000e+00
               7.0000000e-01     1.0000000e-01     5.0000000e-02
               8.0000000e-01     0.0000000e+00     5.0000000e-02
               7.0000000e-01     5.0000000e-02     1.0000000e-01
               7.5000000e-01     5.0000000e-02     5.0000000e-02
               8.0000000e-01     1.0000000e-01     0.0000000e+00
               9.0000000e-01     0.0000000e+00     0.0000000e+00
               7.0000000e-01     1.0000000e-01     1.0000000e-01
               8.0000000e-01     0.0000000e+00     1.0000000e-01
               8.5000000e-01     5.0000000e-02     0.0000000e+00
               8.5000000e-01     0.0000000e+00     5.0000000e-02
               7.5000000e-01     1.0000000e-01     5.0000000e-02
               7.5000000e-01     5.0000000e-02     1.0000000e-01
               8.0000000e-01     5.0000000e-02     5.0000000e-02
               9.5000000e-01     0.0000000e+00     0.0000000e+00
               8.5000000e-01     1.0000000e-01     0.0000000e+00
               8.5000000e-01     0.0000000e+00     1.0000000e-01
               7.5000000e-01     1.0000000e-01     1.0000000e-01
               8.0000000e-01     1.0000000e-01     5.0000000e-02
               9.0000000e-01     0.0000000e+00     5.0000000e-02
               9.0000000e-01     5.0000000e-02     0.0000000e+00
               8.0000000e-01     5.0000000e-02     1.0000000e-01
               8.5000000e-01     5.0000000e-02     5.0000000e-02
               1.0000000e+00     0.0000000e+00     0.0000000e+00
               9.0000000e-01     1.0000000e-01     0.0000000e+00
               9.0000000e-01     0.0000000e+00     1.0000000e-01
               8.0000000e-01     1.0000000e-01     1.0000000e-01
               9.5000000e-01     0.0000000e+00     5.0000000e-02
               8.5000000e-01     1.0000000e-01     5.0000000e-02
               9.5000000e-01     5.0000000e-02     0.0000000e+00
               8.5000000e-01     5.0000000e-02     1.0000000e-01
               9.0000000e-01     5.0000000e-02     5.0000000e-02
               1.0000000e+00     0.0000000e+00     5.0000000e-02
               9.5000000e-01     0.0000000e+00     1.0000000e-01
               9.5000000e-01     1.0000000e-01     0.0000000e+00
               1.0000000e+00     5.0000000e-02     0.0000000e+00
               8.5000000e-01     1.0000000e-01     1.0000000e-01
               9.0000000e-01     1.0000000e-01     5.0000000e-02
               9.0000000e-01     5.0000000e-02     1.0000000e-01
               9.5000000e-01     5.0000000e-02     5.0000000e-02
               1.0000000e+00     1.0000000e-01     0.0000000e+00
               1.0000000e+00     0.0000000e+00     1.0000000e-01
               9.0000000e-01     1.0000000e-01     1.0000000e-01
               1.0000000e+00     5.0000000e-02     5.0000000e-02
               9.5000000e-01     5.0000000e-02     1.0000000e-01
               9.5000000e-01     1.0000000e-01     5.0000000e-02
               9.5000000e-01     1.0000000e-01     1.0000000e-01
               1.0000000e+00     5.0000000e-02     1.0000000e-01
               1.0000000e+00     1.0000000e-01     5.0000000e-02
               1.0000000e+00     1.0000000e-01     1.0000000e-01
            </DataArray>
         </Points>
         <Cells>
            <DataArray type="Int32" Name="connectivity" format="ascii">
               0  3  9  1  2  7  17  8  3  6  15  9  7  16  26  17  6  10  23  15  16  22  35  26  10  19  32  23  22  31  44  35  19  27  41  32  31  40  53  44  27  37  52  41  40  49  62  53  37  46  58  52  49  59  71  62  46  56  69  58  59  68  80  71  56  64  77  69  68  79  89  80  64  74  85  77  79  87  98  89  74  84  94  85  87  95  107  98  84  91  103  94  95  105  116  107  91  101  112  103  105  114  125  116  101  110  122  112  114  121  134  125  110  118  130  122  121  131  143  134  118  129  139  130  131  141  152  143  129  136  148  139  141  149  161  152  136  145  159  148  149  158  170  161  145  153  168  159  158  166  178  170  153  162  174  168  166  171  182  178  1  9  11  4  8  17  25  13  9  15  20  11  17  26  33  25  15  23  29  20  26  35  43  33  23  32  36  29  35  44  51  43  32  41  48  36  44  53  61  51  41  52  54  48  53  62  70  61  52  58  63  54  62  71  76  70  58  69  72  63  71  80  86  76  69  77  83  72  80  89  96  86  77  85  93  83  89  98  104  96  85  94  100  93  98  107  113  104  94  103  108  100  107  116  123  113  103  112  117  108  116  125  133  123  112  122  128  117  125  134  140  133  122  130  135  128  134  143  150  140  130  139  144  135  143  152  157  150  139  148  154  144  152  161  167  157  148  159  163  154  161  170  176  167  159  168  173  163  170  178  184  176  168  174  179  173  178  182  187  184  2  7  17  8  5  12  24  14  7  16  26  17  12  21  34  24  16  22  35  26  21  30  42  34  22  31  44  35  30  39  50  42  31  40  53  44  39  47  60  50  40  49  62  53  47  55  67  60  49  59  71  62  55  66  78  67  59  68  80  71  66  75  88  78  68  79  89  80  75  82  97  88  79  87  98  89  82  90  106  97  87  95  107  98  90  102  115  106  95  105  116  107  102  111  124  115  105  114  125  116  111  120  132  124  114  121  134  125  120  127  142  132  121  131  143  134  127  138  151  142  131  141  152  143  138  147  160  151  141  149  161  152  147  155  169  160  149  158  170  161  155  164  177  169  158  166  178  170  164  172  183  177  166  171  182  178  172  180  186  183  8  17  25  13  14  24  28  18  17  26  33  25  24  34  38  28  26  35  43  33  34  42  45  38  35  44  51  43  42  50  57  45  44  53  61  51  50  60  65  57  53  62  70  61  60  67  73  65  62  71  76  70  67  78  81  73  71  80  86  76  78  88  92  81  80  89  96  86  88  97  99  92  89  98  104  96  97  106  109  99  98  107  113  104  106  115  119  109  107  116  123  113  115  124  126  119  116  125  133  123  124  132  137  126  125  134  140  133  132  142  146  137  134  143  150  140  142  151  156  146  143  152  157  150  151  160  165  156  152  161  167  157  160  169  175  165  161  170  176  167  169  177  181  175  170  178  184  176  177  183  185  181  178  182  187  184  183  186  188  185  
            </DataArray>
            <DataArray type="Int32" Name="offsets" format="ascii">
               8  16  24  32  40  48  56  64  72  80  88  96  104  112  120  128  136  144  152  160  168  176  184  192  200  208  216  224  232  240  248  256  264  272  280  288  296  304  312  320  328  336  344  352  360  368  376  384  392  400  408  416  424  432  440  448  456  464  472  480  488  496  504  512  520  528  536  544  552  560  568  576  584  592  600  608  616  624  632  640  
            </DataArray>
            <DataArray type="Int32" Name="types" format="ascii">
               12  12  12  12  12  12  12  12  12  12  12  12  12  12  12  12  12  12  12  12  12  12  12  12  12  12  12  12  12  12  12  12  12  12  12  12  12  12  12  12  12  12  12  12  12  12  12  12  12  12  12  12  12  12  12  12  12  12  12  12  12  12  12  12  12  12  12  12  12  12  12  12  12  12  12  12  12  12  12  12  
            </DataArray>
         </Cells>
         <PointData>
            <DataArray type="Int32" Name="node-id" NumberOfComponents="1" format="ascii">
               1  2  3  4  5  6  7  8  9  10  11  12  13  14  15  16  17  18  19  20  21  22  23  24  25  26  27  28  29  30  31  32  33  34  35  36  37  38  39  40  41  42  43  44  45  46  47  48  49  50  51  52  53  54  55  56  57  58  59  60  61  62  63  64  65  66  67  68  69  70  71  72  73  74  75  76  77  78  79  80  81  82  83  84  85  86  87  88  89  90  91  92  93  94  95  96  97  98  99  100  101  102  103  104  105  106  107  108  109  110  111  112  113  114  115  116  117  118  119  120  121  122  123  124  125  126  127  128  129  130  131  132  133  134  135  136  137  138  139  140  141  142  143  144  145  146  147  148  149  150  151  152  153  154  155  156  157  158  159  160  161  162  163  164  165  166  167  168  169  170  171  172  173  174  175  176  177  178  179  180  181  182  183  184  185  186  187  188  189  
            </DataArray>
            <DataArray type="Float64" Name="ux" NumberOfComponents="1" format="ascii">
               0.0000000e+00    0.0000000e+00    0.0000000e+00   -1.2767269e-05    0.0000000e+00    0.0000000e+00   -2.5009462e-05    7.0643433e-18    0.0000000e+00   -1.2420314e-05   -3.6736154e-05   -1.2767269e-05    1.2767269e-05    0.0000000e+00    0.0000000e+00   -2.5068059e-05    1.4060170e-17    4.1519788e-20    0.0000000e+00   -4.7794896e-05   -2.5009462e-05    2.5009462e-05    2.0323421e-17   -3.6779562e-05    1.2420314e-05   -6.9766944e-18    8.9095966e-20   -5.8179256e-05    1.2767269e-05   -3.6736154e-05    3.6736154e-05    2.6024462e-17   -4.7833153e-05   -1.3879472e-17    2.5068059e-05    1.3758178e-19   -4.7794896e-05   -6.7894311e-05    2.5009462e-05    4.7794896e-05    3.1151486e-17   -5.8218269e-05    3.6779562e-05   -2.0048580e-17    1.8265519e-19    3.6736154e-05   -7.6939301e-05    5.8179256e-05   -5.8179256e-05    3.5678576e-17    4.7833153e-05   -2.5658722e-17   -6.7933317e-05    2.3824994e-19   -6.7894311e-05    6.7894311e-05   -8.5314306e-05    4.7794896e-05   -7.6978300e-05    3.9632367e-17    5.8218269e-05   -3.0690164e-17    2.9731376e-19   -7.6939301e-05   -9.3019305e-05    5.8179256e-05    7.6939301e-05    6.7933317e-05    4.3033681e-17   -8.5353306e-05   -3.5114915e-17    3.6406124e-19   -8.5314306e-05    6.7894311e-05   -1.0005431e-04    8.5314306e-05   -3.8914388e-17   -9.3058305e-05    7.6978300e-05    4.5946425e-17    3.9956724e-19    7.6939301e-05    9.3019305e-05   -9.3019305e-05   -1.0641931e-04   -1.0009330e-04   -4.2217174e-17    4.8430270e-17    8.5353306e-05    4.5728090e-19    1.0005431e-04   -1.1211431e-04    8.5314306e-05   -1.0005431e-04   -1.0645830e-04    5.0262578e-17   -4.5105239e-17    9.3058305e-05    4.6397651e-19    9.3019305e-05   -1.0641931e-04   -1.1713930e-04    1.0641931e-04   -1.1215331e-04   -4.7436687e-17    5.1574470e-17    1.0009330e-04    5.6376634e-19   -1.1211431e-04    1.0005431e-04   -1.2149430e-04    1.1211431e-04   -1.1717831e-04   -4.9230488e-17    5.2433014e-17    1.0645830e-04    5.6234256e-19   -1.1713930e-04   -1.2517930e-04    1.0641931e-04    1.1713930e-04    5.2819595e-17   -1.2153330e-04   -5.0442423e-17    1.1215331e-04    6.8225888e-19    1.1211431e-04    1.2149430e-04   -1.2149430e-04   -1.2819431e-04   -1.2521830e-04    5.2924468e-17    1.1717831e-04   -5.1157167e-17    7.5417081e-19   -1.2517930e-04   -1.3053925e-04    1.1713930e-04    1.2517930e-04   -1.2823330e-04   -5.1408547e-17    5.2841287e-17    1.2153330e-04    7.8980332e-19   -1.2819431e-04   -1.3221418e-04    1.2149430e-04    1.2819431e-04   -1.3057832e-04    5.2610844e-17   -5.1382650e-17    1.2521830e-04    7.8981728e-19   -1.3322188e-04   -1.3053925e-04    1.3053925e-04    1.2517930e-04   -5.1172245e-17    5.2254971e-17   -1.3225360e-04    1.2823330e-04    7.7824911e-19   -1.3356957e-04   -1.3221418e-04    1.3221418e-04    1.2819431e-04    5.2145042e-17   -5.0893200e-17   -1.3325407e-04    1.3057832e-04    7.9650664e-19    5.2160312e-17    1.3322188e-04   -1.3322188e-04   -1.3359418e-04    1.3053925e-04   -5.0677796e-17    1.3225360e-04    7.4673140e-19   -1.3356957e-04    1.3356957e-04    1.3221418e-04    7.9535742e-19    1.3325407e-04   -5.0553166e-17    1.3322188e-04    1.3359418e-04   -5.0652812e-17    1.3356957e-04
            </DataArray>
            <DataArray type="Float64" Name="fx" NumberOfComponents="1" format="ascii">
               2.5690676e+01    4.8618649e+01   -2.8078873e-11   -2.1316282e-14    2.5690676e+01   -2.5690676e+01    3.9079850e-14    2.6645353e-15   -4.2099657e-13    1.4210855e-14    2.1316282e-14   -1.0658141e-14   -7.1054274e-15    2.7624125e-11   -4.8618649e+01   -2.8421709e-14    3.5527137e-15    7.1054274e-15   -2.5690676e+01   -3.5527137e-15   -1.0658141e-14   -3.5527137e-15    1.7763568e-14   -2.4868996e-14   -7.1054274e-15   -5.3290705e-15   -2.5757174e-14    3.1974423e-14    1.4210855e-14    3.5527137e-15    1.0658141e-14    2.3092639e-14   -8.5265128e-14    1.7763568e-15   -2.1316282e-14   -2.6645353e-15   -7.1054274e-14   -1.4210855e-13   -1.0658141e-14    1.4210855e-14    5.8619776e-14   -7.4606987e-14    8.1712415e-14   -1.9539925e-14    3.5527137e-15    7.1054274e-15   -7.4606987e-14   -5.6843419e-14   -9.9475983e-14    5.5067062e-14    1.0658141e-14   -2.9309888e-14    1.1723955e-13    7.1054274e-14   -4.2632564e-14    7.8159701e-14   -2.6112446e-13    3.5527137e-15   -2.3092639e-13    4.3520743e-14    6.7501560e-14   -7.2830630e-14    1.6431301e-13   -4.9737992e-14   -1.4388490e-13    2.4868996e-14   -1.3500312e-13   -3.9079850e-14    1.1013412e-13    1.5276669e-13   -1.3322676e-13    2.9931613e-13    4.2632564e-14    2.8421709e-14   -3.8014036e-13    5.3290705e-15    1.7230661e-13   -6.9633188e-13   -1.5276669e-13    1.2301271e-13    1.9007018e-13   -2.4868996e-14   -2.3092639e-14    4.0856207e-14    5.1514348e-14   -1.2434498e-13    1.9717561e-13   -7.7715612e-14    1.9717561e-13    2.7577940e-13    2.7178260e-13    2.9842795e-13    2.1316282e-14    2.4336089e-13   -3.9079850e-14    7.4606987e-14   -6.8389738e-14    8.1712415e-14   -2.2204460e-13   -8.8817842e-14    1.4743762e-13    3.7481129e-13   -1.0658141e-13    1.3145041e-13   -2.4513724e-13   -2.7977620e-13    4.4053650e-13    2.8821390e-13    1.3322676e-13    3.5527137e-14   -1.4299673e-13   -4.4408921e-14    9.4146912e-14   -2.5313085e-13   -1.5187851e-13   -3.5527137e-15   -7.4340534e-13    1.0302870e-13   -5.6843419e-14   -4.4408921e-14    2.1493918e-13   -3.4927616e-13   -3.8458126e-13   -2.3447910e-13   -3.4638958e-13    1.7763568e-15    8.7041485e-14    1.1368684e-13    1.7141844e-13    7.7982065e-13    2.2470914e-13    3.2240877e-13    2.3625546e-13   -2.6334490e-13    3.0864200e-14    1.8296475e-13   -1.1457502e-13   -3.5527137e-14   -1.7408297e-13    6.1550764e-13   -2.2226665e-13    2.8999025e-13    3.7392311e-13    7.2586381e-13    3.5527137e-14   -4.6407322e-13    1.6697754e-13   -4.3165471e-13    6.7812422e-13    1.1812773e-13    2.2626345e-13    1.7497115e-13    3.9934722e-13    1.0613732e-13    9.2370556e-14   -2.5623947e-13   -2.2737368e-13    1.0336176e-13   -1.1081414e-13    6.6169292e-13    6.2083672e-13   -4.2676973e-13    1.4065138e-14   -1.1013412e-13   -3.4727776e-13    2.6556535e-13   -7.1720407e-14   -4.0967230e-14   -3.9768189e-13   -3.1619152e-13   -4.4035608e-13   -2.9942715e-13    4.0434323e-13   -1.2656542e-14    1.6482649e-13    5.2846616e-14   -3.8244408e-13    8.8817842e-14   -7.8342888e-13   -1.4369061e-13   -7.6114462e-14   -1.2478907e-13    3.3417713e-13   -4.1167070e-13    1.6342483e-13    7.4007467e-13    1.7835559e-14    8.5487173e-15    8.4279805e-14
            </DataArray>
            <DataArray type="Float64" Name="uy" NumberOfComponents="1" format="ascii">
               0.0000000e+00    0.0000000e+00    0.0000000e+00   -2.5348884e-06    0.0000000e+00    0.0000000e+00   -2.3596472e-06    4.8385173e-18    0.0000000e+00    3.0034171e-18   -2.2080046e-06    2.5348884e-06    2.5348884e-06    0.0000000e+00    0.0000000e+00    1.3859645e-17    1.5757840e-17    3.9464708e-18    0.0000000e+00   -2.0798045e-06    2.3596472e-06    2.3596472e-06    3.3295611e-17    3.1135866e-17    3.6339211e-18    4.8181269e-18    1.5122580e-17   -1.9500642e-06   -2.5348884e-06    2.2080046e-06    2.2080046e-06    5.6746112e-17    5.4360354e-17    1.5745593e-17    1.5126091e-17    3.2681076e-17    2.0798045e-06   -1.8199935e-06   -2.3596472e-06    2.0798045e-06    8.5570359e-17    8.2973157e-17    3.3065556e-17    3.3275047e-17    5.6201582e-17   -2.2080046e-06   -1.6900003e-06    1.9500642e-06    1.9500642e-06    1.1918634e-16    5.6988992e-17    5.6732500e-17    1.1642617e-16    8.5089714e-17    1.8199935e-06    1.8199935e-06   -1.5599999e-06   -2.0798045e-06    1.5406366e-16    1.5690216e-16    8.6248098e-17    8.5553186e-17    1.1873622e-16    1.6900003e-06   -1.4300000e-06   -1.9500642e-06    1.6900003e-06    1.2023989e-16    1.9827658e-16    1.9537643e-16    1.1912855e-16    1.5652376e-16    1.5599999e-06   -1.8199935e-06   -1.3000000e-06    1.5599999e-06    1.5691089e-16    2.3982674e-16    1.5834793e-16    2.4278045e-16    1.9795996e-16   -1.6900003e-06    1.4300000e-06    1.4300000e-06   -1.1700000e-06    2.8696079e-16    1.9822552e-16    2.8981500e-16    1.9990676e-16    2.4249910e-16    1.3000000e-06   -1.0400000e-06   -1.5599999e-06    1.3000000e-06    3.3608690e-16    3.3902949e-16    2.4273698e-16    2.4459723e-16    2.8959969e-16   -1.4300000e-06    1.1700000e-06   -9.0999998e-07    1.1700000e-06    3.8677629e-16    2.8989501e-16    3.8992587e-16    2.9192572e-16    3.3896085e-16    1.0400000e-06   -1.3000000e-06   -7.8000011e-07    1.0400000e-06    4.3850247e-16    3.3912454e-16    4.4166609e-16    3.4149012e-16    3.8978760e-16    9.0999998e-07   -6.4999892e-07   -1.1700000e-06    9.0999998e-07    4.9386272e-16    4.9108270e-16    3.8983979e-16    3.9262389e-16    4.4160886e-16   -1.0400000e-06    7.8000011e-07    7.8000011e-07   -5.2000263e-07    5.4376736e-16    5.4618807e-16    4.4460447e-16    4.4159472e-16    4.9379040e-16    6.4999892e-07   -3.9004127e-07   -9.0999998e-07    6.4999892e-07    5.9687024e-16    4.9384154e-16    5.9851004e-16    4.9659493e-16    5.4623477e-16    5.2000263e-07   -2.5965389e-07   -7.8000011e-07    5.2000263e-07    6.4965214e-16    6.5021854e-16    5.4623540e-16    5.4868470e-16    5.9854847e-16   -1.2837177e-07    3.9004127e-07    3.9004127e-07   -6.4999892e-07    5.9847478e-16    7.0193827e-16    7.0186119e-16    6.0031369e-16    6.5032839e-16   -5.3539978e-08    2.5965389e-07    2.5965389e-07   -5.2000263e-07    7.5303077e-16    6.5051035e-16    7.5278867e-16    6.5121439e-16    7.0203367e-16    8.0427181e-16    1.2837177e-07    1.2837177e-07    8.0378413e-16   -3.9004127e-07    7.0192614e-16    7.0181672e-16    7.5312844e-16    5.3539978e-08    5.3539978e-08   -2.5965389e-07    8.0447722e-16    7.5346794e-16    7.5328758e-16   -1.2837177e-07    8.0519121e-16    8.0469851e-16   -5.3539978e-08
            </DataArray>
            <DataArray type="Float64" Name="fy" NumberOfComponents="1" format="ascii">