<?xml version="1.0"?>
<VTKFile type="UnstructuredGrid" version="0.1" byte_order="LittleEndian">
   <UnstructuredGrid>
      <Piece NumberOfPoints="189" NumberOfCells="80">
         <Points>
            <DataArray type="Float64" NumberOfComponents="3" format="ascii">
               0.0000000e+00     0.0000000e+00     0.0000000e+00
               0.0000000e+00     5.0000000e-02     0.0000000e+00
               0.0000000e+00     0.0000000e+00     5.0000000e-02
               5.0000000e-02     0.0000000e+00     0.0000000e+00
               0.0000000e+00     1.0000000e-01     0.0000000e+00
               0.0000000e+00     0.0000000e+00     1.0000000e-01
               1.0000000e-01     0.0000000e+00     0.0000000e+00
               5.0000000e-02     0.0000000e+00     5.0000000e-02
               0.0000000e+00     5.0000000e-02     5.0000000e-02
               5.0000000e-02     5.0000000e-02     0.0000000e+00
               1.5000000e-01     0.0000000e+00     0.0000000e+00
               5.0000000e-02     1.0000000e-01     0.0000000e+00
               5.0000000e-02     0.0000000e+00     1.0000000e-01
               0.0000000e+00     1.0000000e-01     5.0000000e-02
               0.0000000e+00     5.0000000e-02     1.0000000e-01
               1.0000000e-01     5.0000000e-02     0.0000000e+00
               1.0000000e-01     0.0000000e+00     5.0000000e-02
               5.0000000e-02     5.0000000e-02     5.0000000e-02
               0.0000000e+00     1.0000000e-01     1.0000000e-01
               2.0000000e-01     0.0000000e+00     0.0000000e+00
               1.0000000e-01     1.0000000e-01     0.0000000e+00
               1.0000000e-01     0.0000000e+00     1.0000000e-01
               1.5000000e-01     0.0000000e+00     5.0000000e-02
               1.5000000e-01     5.0000000e-02     0.0000000e+00
               5.0000000e-02     5.0000000e-02     1.0000000e-01
               5.0000000e-02     1.0000000e-01     5.0000000e-02
               1.0000000e-01     5.0000000e-02     5.0000000e-02
               2.5000000e-01     0.0000000e+00     0.0000000e+00
               5.0000000e-02     1.0000000e-01     1.0000000e-01
               1.5000000e-01     1.0000000e-01     0.0000000e+00
               1.5000000e-01     0.0000000e+00     1.0000000e-01
               2.0000000e-01     0.0000000e+00     5.0000000e-02
               2.0000000e-01     5.0000000e-02     0.0000000e+00
               1.0000000e-01     1.0000000e-01     5.0000000e-02
               1.0000000e-01     5.0000000e-02     1.0000000e-01
               1.5000000e-01     5.0000000e-02     5.0000000e-02
               2.0000000e-01     1.0000000e-01     0.0000000e+00
               3.0000000e-01     0.0000000e+00     0.0000000e+00
               1.0000000e-01     1.0000000e-01     1.0000000e-01
               2.0000000e-01     0.0000000e+00     1.0000000e-01
               2.5000000e-01     0.0000000e+00     5.0000000e-02
               2.5000000e-01     5.0000000e-02     0.0000000e+00
               1.5000000e-01     5.0000000e-02     1.0000000e-01
               1.5000000e-01     1.0000000e-01     5.0000000e-02
               2.0000000e-01     5.0000000e-02     5.0000000e-02
               1.5000000e-01     1.0000000e-01     1.0000000e-01
               3.5000000e-01     0.0000000e+00     0.0000000e+00
               2.5000000e-01     0.0000000e+00     1.0000000e-01
               2.5000000e-01     1.0000000e-01     0.0000000e+00
               3.0000000e-01     0.0000000e+00     5.0000000e-02
               2.0000000e-01     5.0000000e-02     1.0000000e-01
               2.0000000e-01     1.0000000e-01     5.0000000e-02
               3.0000000e-01     5.0000000e-02     0.0000000e+00
               2.5000000e-01     5.0000000e-02     5.0000000e-02
               3.0000000e-01     1.0000000e-01     0.0000000e+00
               3.0000000e-01     0.0000000e+00     1.0000000e-01
               4.0000000e-01     0.0000000e+00     0.0000000e+00
               2.0000000e-01     1.0000000e-01     1.0000000e-01
               3.5000000e-01     5.0000000e-02     0.0000000e+00
               3.5000000e-01     0.0000000e+00     5.0000000e-02
               2.5000000e-01     5.0000000e-02     1.0000000e-01
               2.5000000e-01     1.0000000e-01     5.0000000e-02
               3.0000000e-01     5.0000000e-02     5.0000000e-02
               3.5000000e-01     1.0000000e-01     0.0000000e+00
               4.5000000e-01     0.0000000e+00     0.0000000e+00
               2.5000000e-01     1.0000000e-01     1.0000000e-01
               3.5000000e-01     0.0000000e+00     1.0000000e-01
               3.0000000e-01     5.0000000e-02     1.0000000e-01
               4.0000000e-01     0.0000000e+00     5.0000000e-02
               4.0000000e-01     5.0000000e-02     0.0000000e+00
               3.0000000e-01     1.0000000e-01     5.0000000e-02
               3.5000000e-01     5.0000000e-02     5.0000000e-02
               4.0000000e-01     1.0000000e-01     0.0000000e+00
               3.0000000e-01     1.0000000e-01     1.0000000e-01
               5.0000000e-01     0.0000000e+00     0.0000000e+00
               4.0000000e-01     0.0000000e+00     1.0000000e-01
               3.5000000e-01     1.0000000e-01     5.0000000e-02
               4.5000000e-01     5.0000000e-02     0.0000000e+00
               3.5000000e-01     5.0000000e-02     1.0000000e-01
               4.5000000e-01     0.0000000e+00     5.0000000e-02
               4.0000000e-01     5.0000000e-02     5.0000000e-02
               3.5000000e-01     1.0000000e-01     1.0000000e-01
               4.5000000e-01     0.0000000e+00     1.0000000e-01
               4.5000000e-01     1.0000000e-01     0.0000000e+00
               5.5000000e-01     0.0000000e+00     0.0000000e+00
               5.0000000e-01     5.0000000e-02     0.0000000e+00
               4.0000000e-01     1.0000000e-01     5.0000000e-02
               5.0000000e-01     0.0000000e+00     5.0000000e-02
               4.0000000e-01     5.0000000e-02     1.0000000e-01
               4.5000000e-01     5.0000000e-02     5.0000000e-02
               5.0000000e-01     0.0000000e+00     1.0000000e-01
               6.0000000e-01     0.0000000e+00     0.0000000e+00
               4.0000000e-01     1.0000000e-01     1.0000000e-01
               5.0000000e-01     1.0000000e-01     0.0000000e+00
               5.5000000e-01     5.0000000e-02     0.0000000e+00
               5.5000000e-01     0.0000000e+00     5.0000000e-02
               4.5000000e-01     1.0000000e-01     5.0000000e-02
               4.5000000e-01     5.0000000e-02     1.0000000e-01
               5.0000000e-01     5.0000000e-02     5.0000000e-02
               4.5000000e-01     1.0000000e-01     1.0000000e-01
               5.5000000e-01     1.0000000e-01     0.0000000e+00
               6.5000000e-01     0.0000000e+00     0.0000000e+00
               5.5000000e-01     0.0000000e+00     1.0000000e-01
               6.0000000e-01     5.0000000e-02     0.0000000e+00
               5.0000000e-01     1.0000000e-01     5.0000000e-02
               6.0000000e-01     0.0000000e+00     5.0000000e-02
               5.0000000e-01     5.0000000e-02     1.0000000e-01
               5.5000000e-01     5.0000000e-02     5.0000000e-02
               6.0000000e-01     1.0000000e-01     0.0000000e+00
               5.0000000e-01     1.0000000e-01     1.0000000e-01
               7.0000000e-01     0.0000000e+00     0.0000000e+00
               6.0000000e-01     0.0000000e+00     1.0000000e-01
               6.5000000e-01     5.0000000e-02     0.0000000e+00
               5.5000000e-01     1.0000000e-01     5.0000000e-02
               6.5000000e-01     0.0000000e+00     5.0000000e-02
               5.5000000e-01     5.0000000e-02     1.0000000e-01
               6.0000000e-01     5.0000000e-02     5.0000000e-02
               6.5000000e-01     1.0000000e-01     0.0000000e+00
               7.5000000e-01     0.0000000e+00     0.0000000e+00
               5.5000000e-01     1.0000000e-01     1.0000000e-01
               6.5000000e-01     0.0000000e+00     1.0000000e-01
               7.0000000e-01     0.0000000e+00     5.0000000e-02
               7.0000000e-01     5.0000000e-02     0.0000000e+00
               6.0000000e-01     1.0000000e-01     5.0000000e-02
               6.0000000e-01     5.0000000e-02     1.0000000e-01
               6.5000000e-01     5.0000000e-02     5.0000000e-02
               6.0000000e-01     1.0000000e-01     1.0000000e-01
               7.0000000e-01     0.0000000e+00     1.0000000e-01
               7.0000000e-01     1.0000000e-01     0.0000000e+00
               8.0000000e-01     0.0000000e+00     0.0000000e+00
               7.5000000e-01     5.0000000e-02     0.0000000e+00
               7.5000000e-01     0.0000000e+00     5.0000000e-02
               6.5000000e-01     5.0000000e-02     1.0000000e-01
               6.5000000e-01     1.0000000e-01     5.0000000e-02
               7.0000000e-01     5.0000000e-02     5.0000000e-02
               7.5000000e-01     1.0000000e-01     0.0000000e+00
               8.5000000e-01     0.0000000e+00     0.0000000e+00
               6.5000000e-01     1.0000000e-01     1.0000000e-01
               7.5000000e-01     0.0000000e+00     1.0000000e-01
               8.0000000e-01     5.0000000e-02     0.0000000e+00
               7.0000000e-01     1.0000000e-01     5.0000000e-02
               8.0000000e-01     0.0000000e+00     5.0000000e-02
               7.0000000e-01     5.0000000e-02     1.0000000e-01
               7.5000000e-01     5.0000000e-02     5.0000000e-02
               8.0000000e-01     1.0000000e-01     0.0000000e+00
               9.0000000e-01     0.0000000e+00     0.0000000e+00
               7.0000000e-01     1.0000000e-01     1.0000000e-01
               8.0000000e-01     0.0000000e+00     1.0000000e-01
               8.5000000e-01     5.0000000e-02     0.0000000e+00
               8.5000000e-01     0.0000000e+00     5.0000000e-02
               7.5000000e-01     1.0000000e-01     5.0000000e-02
               7.5000000e-01     5.0000000e-02     1.0000000e-01
               8.0000000e-01     5.0000000e-02     5.0000000e-02
               9.5000000e-01     0.0000000e+00     0.0000000e+00
               8.5000000e-01     1.0000000e-01     0.0000000e+00
               8.5000000e-01     0.0000000e+00     1.0000000e-01
               7.5000000e-01     1.0000000e-01     1.0000000e-01
               8.0000000e-01     1.0000000e-01     5.0000000e-02
               9.0000000e-01     0.0000000e+00     5.0000000e-02
               9.0000000e-01     5.0000000e-02     0.0000000e+00
               8.0000000e-01     5.0000000e-02     1.0000000e-01
               8.5000000e-01     5.0000000e-02     5.0000000e-02
               1.0000000e+00     0.0000000e+00     0.0000000e+00
               9.0000000e-01     1.0000000e-01     0.0000000e+00
               9.0000000e-01     0.0000000e+00     1.0000000e-01
               8.0000000e-01     1.0000000e-01     1.0000000e-01
               9.5000000e-01     0.0000000e+00     5.0000000e-02
               8.5000000e-01     1.0000000e-01     5.0000000e-02
               9.5000000e-01     5.0000000e-02     0.0000000e+00
               8.5000000e-01     5.0000000e-02     1.0000000e-01
               9.0000000e-01     5.0000000e-02     5.0000000e-02
               1.0000000e+00     0.0000000e+00     5.0000000e-02
               9.5000000e-01     0.0000000e+00     1.0000000e-01
               9.5000000e-01     1.0000000e-01     0.0000000e+00
               1.0000000e+00     5.0000000e-02     0.0000000e+00
               8.5000000e-01     1.0000000e-01     1.0000000e-01
               9.0000000e-01     1.0000000e-01     5.0000000e-02
               9.0000000e-01     5.0000000e-02     1.0000000e-01
               9.5000000e-01     5.0000000e-02     5.0000000e-02
               1.0000000e+00     1.0000000e-01     0.0000000e+00
               1.0000000e+00     0.0000000e+00     1.0000000e-01
               9.0000000e-01     1.0000000e-01     1.0000000e-01
               1.0000000e+00     5.0000000e-02     5.0000000e-02
               9.5000000e-01     5.0000000e-02     1.0000000e-01
               9.5000000e-01     1.0000000e-01     5.0000000e-02
               9.5000000e-01     1.0000000e-01     1.0000000e-01
               1.0000000e+00     5.0000000e-02     1.0000000e-01
               1.0000000e+00     1.0000000e-01     5.0000000e-02
               1.0000000e+00     1.0000000e-01     1.0000000e-01
            </DataArray>
         </Points>
         <Cells>
            <DataArray type="Int32" Name="connectivity" format="ascii">
               0  3  9  1  2  7  17  8  3  6  15  9  7  16  26  17  6  10  23  15  16  22  35  26  10  19  32  23  22  31  44  35  19  27  41  32  31  40  53  44  27  37  52  41  40  49  62  53  37  46  58  52  49  59  71  62  46  56  69  58  59  68  80  71  56  64  77  69  68  79  89  80  64  74  85  77  79  87  98  89  74  84  94  85  87  95  107  98  84  91  103  94  95  105  116  107  91  101  112  103  105  114  125  116  101  110  122  112  114  121  134  125  110  118  130  122  121  131  143  134  118  129  139  130  131  141  152  143  129  136  148  139  141  149  161  152  136  145  159  148  149  158  170  161  145  153  168  159  158  166  178  170  153  162  174  168  166  171  182  178  1  9  11  4  8  17  25  13  9  15  20  11  17  26  33  25  15  23  29  20  26  35  43  33  23  32  36  29  35  44  51  43  32  41  48  36  44  53  61  51  41  52  54  48  53  62  70  61  52  58  63  54  62  71  76  70  58  69  72  63  71  80  86  76  69  77  83  72  80  89  96  86  77  85  93  83  89  98  104  96  85  94  100  93  98  107  113  104  94  103  108  100  107  116  123  113  103  112  117  108  116  125  133  123  112  122  128  117  125  134  140  133  122  130  135  128  134  143  150  140  130  139  144  135  143  152  157  150  139  148  154  144  152  161  167  157  148  159  163  154  161  170  176  167  159  168  173  163  170  178  184  176  168  174  179  173  178  182  187  184  2  7  17  8  5  12  24  14  7  16  26  17  12  21  34  24  16  22  35  26  21  30  42  34  22  31  44  35  30  39  50  42  31  40  53  44  39  47  60  50  40  49  62  53  47  55  67  60  49  59  71  62  55  66  78  67  59  68  80  71  66  75  88  78  68  79  89  80  75  82  97  88  79  87  98  89  82  90  106  97  87  95  107  98  90  102  115  106  95  105  116  107  102  111  124  115  105  114  125  116  111  120  132  124  114  121  134  125  120  127  142  132  121  131  143  134  127  138  151  142  131  141  152  143  138  147  160  151  141  149  161  152  147  155  169  160  149  158  170  161  155  164  177  169  158  166  178  170  164  172  183  177  166  171  182  178  172  180  186  183  8  17  25  13  14  24  28  18  17  26  33  25  24  34  38  28  26  35  43  33  34  42  45  38  35  44  51  43  42  50  57  45  44  53  61  51  50  60  65  57  53  62  70  61  60  67  73  65  62  71  76  70  67  78  81  73  71  80  86  76  78  88  92  81  80  89  96  86  88  97  99  92  89  98  104  96  97  106  109  99  98  107  113  104  106  115  119  109  107  116  123  113  115  124  126  119  116  125  133  123  124  132  137  126  125  134  140  133  132  142  146  137  134  143  150  140  142  151  156  146  143  152  157  150  151  160  165  156  152  161  167  157  160  169  175  165  161  170  176  167  169  177  181  175  170  178  184  176  177  183  185  181  178  182  187  184  183  186  188  185  
            </DataArray>
            <DataArray type="Int32" Name="offsets" format="ascii">
               8  16  24  32  40  48  56  64  72  80  88  96  104  112  120  128  136  144  152  160  168  176  184  192  200  208  216  224  232  240  248  256  264  272  280  288  296  304  312  320  328  336  344  352  360  368  376  384  392  400  408  416  424  432  440  448  456  464  472  480  488  496  504  512  520  528  536  544  552  560  568  576  584  592  600  608  616  624  632  640  
            </DataArray>
            <DataArray type="Int32" Name="types" format="ascii">
               12  12  12  12  12  12  12  12  12  12  12  12  12  12  12  12  12  12  12  12  12  12  12  12  12  12  12  12  12  12  12  12  12  12  12  12  12  12  12  12  12  12  12  12  12  12  12  12  12  12  12  12  12  12  12  12  12  12  12  12  12  12  12  12  12  12  12  12  12  12  12  12  12  12  12  12  12  12  12  12  
            </DataArray>
         </Cells>
         <PointData>
            <DataArray type="Int32" Name="node-id" NumberOfComponents="1" format="ascii">
               1  2  3  4  5  6  7  8  9  10  11  12  13  14  15  16  17  18  19  20  21  22  23  24  25  26  27  28  29  30  31  32  33  34  35  36  37  38  39  40  41  42  43  44  45  46  47  48  49  50  51  52  53  54  55  56  57  58  59  60  61  62  63  64  65  66  67  68  69  70  71  72  73  74  75  76  77  78  79  80  81  82  83  84  85  86  87  88  89  90  91  92  93  94  95  96  97  98  99  100  101  102  103  104  105  106  107  108  109  110  111  112  113  114  115  116  117  118  119  120  121  122  123  124  125  126  127  128  129  130  131  132  133  134  135  136  137  138  139  140  141  142  143  144  145  146  147  148  149  150  151  152  153  154  155  156  157  158  159  160  161  162  163  164  165  166  167  168  169  170  171  172  173  174  175  176  177  178  179  180  181  182  183  184  185  186  187  188  189  
            </DataArray>
            <DataArray type="Float64" Name="ux" NumberOfComponents="1" format="ascii">
               0.0000000e+00    0.0000000e+00    0.0000000e+00   -1.2767269e-05    0.0000000e+00    0.0000000e+00   -2.5009462e-05   -3.0354807e-18    0.0000000e+00   -1.2420314e-05   -3.6736154e-05   -1.2767269e-05    1.2767269e-05    0.0000000e+00    0.0000000e+00   -2.5068059e-05   -6.2962747e-18    3.4632698e-20    0.0000000e+00   -4.7794896e-05   -2.5009462e-05    2.5009462e-05   -9.4932715e-18   -3.6779562e-05    1.2420314e-05    3.1073350e-18    7.0460796e-20   -5.8179256e-05    1.2767269e-05   -3.6736154e-05    3.6736154e-05   -1.2692964e-17   -4.7833153e-05    6.4447925e-18    2.5068059e-05    1.0786606e-19   -4.7794896e-05   -6.7894311e-05    2.5009462e-05    4.7794896e-05   -1.5878691e-17   -5.8218269e-05    3.6779562e-05    9.7192961e-18    1.5350672e-19    3.6736154e-05   -7.6939301e-05    5.8179256e-05   -5.8179256e-05   -1.9031030e-17    4.7833153e-05    1.2982418e-17   -6.7933317e-05    1.8789263e-19   -6.7894311e-05    6.7894311e-05   -8.5314306e-05    4.7794896e-05   -7.6978300e-05   -2.2146829e-17    5.8218269e-05    1.6257634e-17    2.1807255e-19   -7.6939301e-05   -9.3019305e-05    5.8179256e-05    7.6939301e-05    6.7933317e-05   -2.5130683e-17   -8.5353306e-05    1.9497956e-17    2.9204172e-19   -8.5314306e-05    6.7894311e-05   -1.0005431e-04    8.5314306e-05    2.2626311e-17   -9.3058305e-05    7.6978300e-05   -2.7986978e-17    2.8847409e-19    7.6939301e-05    9.3019305e-05   -9.3019305e-05   -1.0641931e-04   -1.0009330e-04    2.5691485e-17   -3.0769511e-17    8.5353306e-05    2.9890285e-19    1.0005431e-04   -1.1211431e-04    8.5314306e-05   -1.0005431e-04   -1.0645830e-04   -3.3249792e-17    2.8638826e-17    9.3058305e-05    3.4258577e-19    9.3019305e-05   -1.0641931e-04   -1.1713930e-04    1.0641931e-04   -1.1215331e-04    3.1453103e-17   -3.5667889e-17    1.0009330e-04    4.0573328e-19   -1.1211431e-04    1.0005431e-04   -1.2149430e-04    1.1211431e-04   -1.1717831e-04    3.4117710e-17   -3.7868527e-17    1.0645830e-04    5.2904440e-19   -1.1713930e-04   -1.2517930e-04    1.0641931e-04    1.1713930e-04   -4.0036663e-17   -1.2153330e-04    3.6729638e-17    1.1215331e-04    6.2330990e-19    1.1211431e-04    1.2149430e-04   -1.2149430e-04   -1.2819431e-04   -1.2521830e-04   -4.1923138e-17    1.1717831e-04    3.9080115e-17    6.1831777e-19   -1.2517930e-04   -1.3053925e-04    1.1713930e-04    1.2517930e-04   -1.2823330e-04    4.1234001e-17   -4.3378814e-17    1.2153330e-04    6.0932574e-19   -1.2819431e-04   -1.3221418e-04    1.2149430e-04    1.2819431e-04   -1.3057832e-04   -4.4344223e-17    4.3056104e-17    1.2521830e-04    5.2979631e-19   -1.3322188e-04   -1.3053925e-04    1.3053925e-04    1.2517930e-04    4.4530044e-17   -4.5112783e-17   -1.3225360e-04    1.2823330e-04    4.2915456e-19   -1.3356957e-04   -1.3221418e-04    1.3221418e-04    1.2819431e-04   -4.5502722e-17    4.5370546e-17   -1.3325407e-04    1.3057832e-04    4.4013086e-19   -4.5530191e-17    1.3322188e-04   -1.3322188e-04   -1.3359418e-04    1.3053925e-04    4.5851961e-17    1.3225360e-04    2.5445076e-19   -1.3356957e-04    1.3356957e-04    1.3221418e-04    3.7158123e-20    1.3325407e-04    4.5934468e-17    1.3322188e-04    1.3359418e-04    4.5881062e-17    1.3356957e-04
            </DataArray>
            <DataArray type="Float64" Name="fx" NumberOfComponents="1" format="ascii">
               2.5690676e+01    4.8618649e+01    1.1494805e-11    0.0000000e+00    2.5690676e+01   -2.5690676e+01    1.7763568e-14   -5.3290705e-15   -3.3306691e-13   -1.4210855e-14   -5.3290705e-14    0.0000000e+00    1.0658141e-14   -1.1873169e-11   -4.8618649e+01    7.1054274e-15   -4.4408921e-15   -4.4408921e-15   -2.5690676e+01   -1.4210855e-14    3.5527137e-14   -1.7763568e-14   -1.7763568e-15    6.7501560e-14   -2.8421709e-14    7.1054274e-15   -2.5757174e-14   -4.2632564e-14   -1.7763568e-14    7.1054274e-15   -6.0396133e-14    4.1744386e-14    1.6697754e-13    1.5987212e-14    1.1368684e-13   -1.4210855e-14    2.1316282e-14   -2.4868996e-14    0.0000000e+00    7.1054274e-15    5.7731597e-14   -9.2370556e-14   -1.0658141e-14    3.1974423e-14    1.4832580e-13   -3.9079850e-14    2.4868996e-14    4.6185278e-14    7.4606987e-14    7.9047879e-14   -9.5923269e-14   -2.7533531e-14    2.5224267e-13   -7.4606987e-14    1.2789769e-13   -2.1316282e-14   -1.8474111e-13   -1.4210855e-14    1.8474111e-13   -1.0125234e-13   -7.4606987e-14   -4.5297099e-14   -1.5720758e-13   -7.4606987e-14   -1.9539925e-13   -3.9079850e-14   -7.8159701e-14    8.1712415e-14   -1.9273472e-13   -2.2559732e-13    2.6645353e-15    5.2313709e-13    1.0658141e-14    7.1054274e-14   -1.4743762e-13    1.1191048e-13   -8.4376950e-14    2.2915003e-13   -9.9475983e-14   -1.0658141e-13    2.8421709e-14   -1.4210855e-14   -2.4691360e-13   -1.7763568e-15    3.8902215e-13    3.8014036e-13    7.1054274e-14   -2.5091040e-13    2.9665159e-13   -2.1849189e-13    6.9277917e-14    6.7501560e-14   -7.1054274e-15   -4.6185278e-14    2.7533531e-13    4.6096460e-13    6.2172489e-14   -4.1389114e-13   -1.2567725e-13   -1.4921397e-13    1.4210855e-13    2.9665159e-13   -5.9507954e-13    7.4606987e-14   -2.9753977e-14    3.7969627e-13    7.2830630e-14    2.4868996e-14   -8.3488771e-14    6.9277917e-14   -4.7073456e-14   -3.0198066e-14   -4.7606363e-13   -4.8538951e-13    7.3718809e-13   -6.6080474e-13    2.3225866e-13   -7.1054274e-15    5.7731597e-14   -2.7888802e-13    7.2830630e-14    3.9968029e-15    9.0150110e-13    3.3306691e-13   -1.1546319e-13    8.3621998e-13   -6.0396133e-14   -1.7941204e-13    1.0746959e-13   -6.1284311e-14    9.7877262e-13    6.3127281e-13    2.5046631e-13    1.0791368e-13    4.8983040e-13    4.7783999e-13    8.6552987e-13   -9.9475983e-14   -8.8817842e-14   -7.2919448e-13   -3.2884806e-13    6.3915540e-13    4.8849813e-14    7.2408746e-13    2.7533531e-14    2.1493918e-13   -2.5668356e-13   -2.5757174e-13    2.7489122e-13    4.7678528e-13   -3.2973624e-13   -1.0160761e-12    1.0117462e-12    5.8575367e-13    5.6399330e-13   -5.9774408e-13   -1.5187851e-13    4.6940229e-13   -1.2537020e-13    1.3491430e-12   -7.1054274e-15   -1.5046298e-12   -6.7299638e-13    1.5143442e-13    1.1368684e-13    2.0428104e-13   -4.2843507e-13    9.8865360e-14   -1.7919000e-13    2.7089442e-13    5.8384547e-13   -7.6172402e-13   -7.6161299e-14   -5.1780802e-13   -6.5765449e-13   -4.9560356e-13    2.6848315e-13   -2.4291680e-13   -3.8247183e-14    1.0966228e-13    2.7082503e-14    4.4408921e-16   -1.1880497e-12   -1.1262102e-12   -5.6382676e-13    3.7747583e-15   -3.9208914e-13    2.2892799e-13    1.8723911e-13
            </DataArray>
            <DataArray type="Float64" Name="uy" NumberOfComponents="1" format="ascii">
               0.0000000e+00    0.0000000e+00    0.0000000e+00   -2.5348884e-06    0.0000000e+00    0.0000000e+00   -2.3596472e-06   -1.8830742e-18    0.0000000e+00   -1.2417014e-18   -2.2080046e-06    2.5348884e-06    2.5348884e-06    0.0000000e+00    0.0000000e+00   -6.0444585e-18   -6.5919020e-18   -1.4949397e-18    0.0000000e+00   -2.0798045e-06    2.3596472e-06    2.3596472e-06   -1.4580653e-17   -1.4066433e-17   -1.1714463e-18   -1.8977928e-18   -6.2807398e-18   -1.9500642e-06   -2.5348884e-06    2.2080046e-06    2.2080046e-06   -2.5810154e-17   -2.5344705e-17   -6.6052878e-18   -5.8971195e-18   -1.4259906e-17    2.0798045e-06   -1.8199935e-06   -2.3596472e-06    2.0798045e-06   -4.0284063e-17   -3.9913394e-17   -1.3822214e-17   -1.4591438e-17   -2.5496003e-17   -2.2080046e-06   -1.6900003e-06    1.9500642e-06    1.9500642e-06   -5.7959612e-17   -2.5021501e-17   -2.5825854e-17   -5.7736069e-17   -3.9968097e-17    1.8199935e-06    1.8199935e-06   -1.5599999e-06   -2.0798045e-06   -7.8652912e-17   -7.8866808e-17   -3.9427858e-17   -4.0304766e-17   -5.7669815e-17    1.6900003e-06   -1.4300000e-06   -1.9500642e-06    1.6900003e-06   -5.7042177e-17   -1.0283711e-16   -1.0258041e-16   -5.8007298e-17   -7.8547456e-17    1.5599999e-06   -1.8199935e-06   -1.3000000e-06    1.5599999e-06   -7.8867641e-17   -1.2952656e-16   -7.7897603e-17   -1.2982929e-16   -1.0256778e-16   -1.6900003e-06    1.4300000e-06    1.4300000e-06   -1.1700000e-06   -1.5922741e-16   -1.0291464e-16   -1.5961830e-16   -1.0195121e-16   -1.2957064e-16    1.3000000e-06   -1.0400000e-06   -1.5599999e-06    1.3000000e-06   -1.9178594e-16   -1.9214028e-16   -1.2982486e-16   -1.2897217e-16   -1.5934232e-16   -1.4300000e-06    1.1700000e-06   -9.0999998e-07    1.1700000e-06   -2.2690091e-16   -1.5971674e-16   -2.2715629e-16   -1.5895406e-16   -1.9197143e-16    1.0400000e-06   -1.3000000e-06   -7.8000011e-07    1.0400000e-06   -2.6446738e-16   -1.9220848e-16   -2.6464314e-16   -1.9154419e-16   -2.2695350e-16    9.0999998e-07   -6.4999892e-07   -1.1700000e-06    9.0999998e-07   -3.0458643e-16   -3.0465787e-16   -2.2722890e-16   -2.2661329e-16   -2.6449832e-16   -1.0400000e-06    7.8000011e-07    7.8000011e-07   -5.2000263e-07   -3.4698816e-16   -3.4632708e-16   -2.6399306e-16   -2.6469788e-16   -3.0434402e-16    6.4999892e-07   -3.9004127e-07   -9.0999998e-07    6.4999892e-07   -3.9113173e-16   -3.0461856e-16   -3.8999959e-16   -3.0375425e-16   -3.4630339e-16    5.2000263e-07   -2.5965389e-07   -7.8000011e-07    5.2000263e-07   -4.3659583e-16   -4.3493554e-16   -3.4653473e-16   -3.4533390e-16   -3.8993318e-16   -1.2837177e-07    3.9004127e-07    3.9004127e-07   -6.4999892e-07   -3.9000166e-16   -4.8035667e-16   -4.8285828e-16   -3.8829081e-16   -4.3482169e-16   -5.3539978e-08    2.5965389e-07    2.5965389e-07   -5.2000263e-07   -5.2604240e-16   -4.3495211e-16   -5.2910019e-16   -4.3278934e-16   -4.8039384e-16   -5.7196990e-16    1.2837177e-07    1.2837177e-07   -5.7477056e-16   -3.9004127e-07   -4.8057267e-16   -4.7768884e-16   -5.2619614e-16    5.3539978e-08    5.3539978e-08   -2.5965389e-07   -5.7181468e-16   -5.2304094e-16   -5.2606940e-16   -1.2837177e-07   -5.6883996e-16   -5.7194132e-16   -5.3539978e-08
            </DataArray>
            <DataArray type="Float64" Name="fy" NumberOfComponents="1" format="ascii">