<?xml version="1.0"?>
<VTKFile type="UnstructuredGrid" version="0.1" byte_order="LittleEndian">
   <UnstructuredGrid>
      <Piece NumberOfPoints="189" NumberOfCells="80">
         <Points>
            <DataArray type="Float64" NumberOfComponents="3" format="ascii">
               0.0000000e+00     0.0000000e+00     0.0000000e+00
               0.0000000e+00     5.0000000e-02     0.0000000e+00
               0.0000000e+00     0.0000000e+00     5.0000000e-02
               5.0000000e-02     0.0000000e+00     0.0000000e+00
               0.0000000e+00     1.0000000e-01     0.0000000e+00
               0.0000000e+00     0.0000000e+00     1.0000000e-01
               1.0000000e-01     0.0000000e+00     0.0000000e+00
               5.0000000e-02     0.0000000e+00     5.0000000e-02
               0.0000000e+00     5.0000000e-02     5.0000000e-02
               5.0000000e-02     5.0000000e-02     0.0000000e+00
               1.5000000e-01     0.0000000e+00     0.0000000e+00
               5.0000000e-02     1.0000000e-01     0.0000000e+00
               5.0000000e-02     0.0000000e+00     1.0000000e-01
               0.0000000e+00     1.0000000e-01     5.0000000e-02
               0.0000000e+00     5.0000000e-02     1.0000000e-01
               1.0000000e-01     5.0000000e-02     0.0000000e+00
               1.0000000e-01     0.0000000e+00     5.0000000e-02
               5.0000000e-02     5.0000000e-02     5.0000000e-02
               0.0000000e+00     1.0000000e-01     1.0000000e-01
               2.0000000e-01     0.0000000e+00     0.0000000e+00
               1.0000000e-01     1.0000000e-01     0.0000000e+00
               1.0000000e-01     0.0000000e+00     1.0000000e-01
               1.5000000e-01     0.0000000e+00     5.0000000e-02
               1.5000000e-01     5.0000000e-02     0.0000000e+00
               5.0000000e-02     5.0000000e-02     1.0000000e-01
               5.0000000e-02     1.0000000e-01     5.0000000e-02
               1.0000000e-01     5.0000000e-02     5.0000000e-02
               2.5000000e-01     0.0000000e+00     0.0000000e+00
               5.0000000e-02     1.0000000e-01     1.0000000e-01
               1.5000000e-01     1.0000000e-01     0.0000000e+00
               1.5000000e-01     0.0000000e+00     1.0000000e-01
               2.0000000e-01     0.0000000e+00     5.0000000e-02
               2.0000000e-01     5.0000000e-02     0.0000000e+00
               1.0000000e-01     1.0000000e-01     5.0000000e-02
               1.0000000e-01     5.0000000e-02     1.0000000e-01
               1.5000000e-01     5.0000000e-02     5.0000000e-02
               2.0000000e-01     1.0000000e-01     0.0000000e+00
               3.0000000e-01     0.0000000e+00     0.0000000e+00
               1.0000000e-01     1.0000000e-01     1.0000000e-01
               2.0000000e-01     0.0000000e+00     1.0000000e-01
               2.5000000e-01     0.0000000e+00     5.0000000e-02
               2.5000000e-01     5.0000000e-02     0.0000000e+00
               1.5000000e-01     5.0000000e-02     1.0000000e-01
               1.5000000e-01     1.0000000e-01     5.0000000e-02
               2.0000000e-01     5.0000000e-02     5.0000000e-02
               1.5000000e-01     1.0000000e-01     1.0000000e-01
               3.5000000e-01     0.0000000e+00     0.0000000e+00
               2.5000000e-01     0.0000000e+00     1.0000000e-01
               2.5000000e-01     1.0000000e-01     0.0000000e+00
               3.0000000e-01     0.0000000e+00     5.0000000e-02
               2.0000000e-01     5.0000000e-02     1.0000000e-01
               2.0000000e-01     1.0000000e-01     5.0000000e-02
               3.0000000e-01     5.0000000e-02     0.0000000e+00
               2.5000000e-01     5.0000000e-02     5.0000000e-02
               3.0000000e-01     1.0000000e-01     0.0000000e+00
               3.0000000e-01     0.0000000e+00     1.0000000e-01
               4.0000000e-01     0.0000000e+00     0.0000000e+00
               2.0000000e-01     1.0000000e-01     1.0000000e-01
               3.5000000e-01     5.0000000e-02     0.0000000e+00
               3.5000000e-01     0.0000000e+00     5.0000000e-02
               2.5000000e-01     5.0000000e-02     1.0000000e-01
               2.5000000e-01     1.0000000e-01     5.0000000e-02
               3.0000000e-01     5.0000000e-02     5.0000000e-02
               3.5000000e-01     1.0000000e-01     0.0000000e+00
               4.5000000e-01     0.0000000e+00     0.0000000e+00
               2.5000000e-01     1.0000000e-01     1.0000000e-01
               3.5000000e-01     0.0000000e+00     1.0000000e-01
               3.0000000e-01     5.0000000e-02     1.0000000e-01
               4.0000000e-01     0.0000000e+00     5.0000000e-02
               4.0000000e-01     5.0000000e-02     0.0000000e+00
               3.0000000e-01     1.0000000e-01     5.0000000e-02
               3.5000000e-01     5.0000000e-02     5.0000000e-02
               4.0000000e-01     1.0000000e-01     0.0000000e+00
               3.0000000e-01     1.0000000e-01     1.0000000e-01
               5.0000000e-01     0.0000000e+00     0.0000000e+00
               4.0000000e-01     0.0000000e+00     1.0000000e-01
               3.5000000e-01     1.0000000e-01     5.0000000e-02
               4.5000000e-01     5.0000000e-02     0.0000000e+00
               3.5000000e-01     5.0000000e-02     1.0000000e-01
               4.5000000e-01     0.0000000e+00     5.0000000e-02
               4.0000000e-01     5.0000000e-02     5.0000000e-02
               3.5000000e-01     1.0000000e-01     1.0000000e-01
               4.5000000e-01     0.0000000e+00     1.0000000e-01
               4.5000000e-01     1.0000000e-01     0.0000000e+00
               5.5000000e-01     0.0000000e+00     0.0000000e+00
               5.0000000e-01     5.0000000e-02     0.0000000e+00
               4.0000000e-01     1.0000000e-01     5.0000000e-02
               5.0000000e-01     0.0000000e+00     5.0000000e-02
               4.0000000e-01     5.0000000e-02     1.0000000e-01
               4.5000000e-01     5.0000000e-02     5.0000000e-02
               5.0000000e-01     0.0000000e+00     1.0000000e-01
               6.0000000e-01     0.0000000e+00     0.0000000e+00
               4.0000000e-01     1.0000000e-01     1.0000000e-01
               5.0000000e-01     1.0000000e-01     0.0000000e+00
               5.5000000e-01     5.0000000e-02     0.0000000e+00
               5.5000000e-01     0.0000000e+00     5.0000000e-02
               4.5000000e-01     1.0000000e-01     5.0000000e-02
               4.5000000e-01     5.0000000e-02     1.0000000e-01
               5.0000000e-01     5.0000000e-02     5.0000000e-02
               4.5000000e-01     1.0000000e-01     1.0000000e-01
               5.5000000e-01     1.0000000e-01     0.0000000e+00
               6.5000000e-01     0.0000000e+00     0.0000000e+00
               5.5000000e-01     0.0000000e+00     1.0000000e-01
               6.0000000e-01     5.0000000e-02     0.0000000e+00
               5.0000000e-01     1.0000000e-01     5.0000000e-02
               6.0000000e-01     0.0000000e+00     5.0000000e-02
               5.0000000e-01     5.0000000e-02     1.0000000e-01
               5.5000000e-01     5.0000000e-02     5.0000000e-02
               6.0000000e-01     1.0000000e-01     0.0000000e+00
               5.0000000e-01     1.0000000e-01     1.0000000e-01
               7.0000000e-01     0.0000000e+00     0.0000000e+00
               6.0000000e-01     0.0000000e+00     1.0000000e-01
               6.5000000e-01     5.0000000e-02     0.0000000e+00
               5.5000000e-01     1.0000000e-01     5.0000000e-02
               6.5000000e-01     0.0000000e+00     5.0000000e-02
               5.5000000e-01     5.0000000e-02     1.0000000e-01
               6.0000000e-01     5.0000000e-02     5.0000000e-02
               6.5000000e-01     1.0000000e-01     0.0000000e+00
               7.5000000e-01     0.0000000e+00     0.0000000e+00
               5.5000000e-01     1.0000000e-01     1.0000000e-01
               6.5000000e-01     0.0000000e+00     1.0000000e-01
               7.0000000e-01     0.0000000e+00     5.0000000e-02
               7.0000000e-01     5.0000000e-02     0.0000000e+00
               6.0000000e-01     1.0000000e-01     5.0000000e-02
               6.0000000e-01     5.0000000e-02     1.0000000e-01
               6.5000000e-01     5.0000000e-02     5.0000000e-02
               6.0000000e-01     1.0000000e-01     1.0000000e-01
               7.0000000e-01     0.0000000e+00     1.0000000e-01
               7.0000000e-01     1.0000000e-01     0.0000000e+00
               8.0000000e-01     0.0000000e+00     0.0000000e+00
               7.5000000e-01     5.0000000e-02     0.0000000e+00
               7.5000000e-01     0.0000000e+00     5.0000000e-02
               6.5000000e-01     5.0000000e-02     1.0000000e-01
               6.5000000e-01     1.0000000e-01     5.0000000e-02
               7.0000000e-01     5.0000000e-02     5.0000000e-02
               7.5000000e-01     1.0000000e-01     0.0000000e+00
               8.5000000e-01     0.0000000e+00     0.0000000e+00
               6.5000000e-01     1.0000000e-01     1.0000000e-01
               7.5000000e-01     0.0000000e+00     1.0000000e-01
               8.0000000e-01     5.0000000e-02     0.0000000e+00
               7.0000000e-01     1.0000000e-01     5.0000000e-02
               8.0000000e-01     0.0000000e+00     5.0000000e-02
               7.0000000e-01     5.0000000e-02     1.0000000e-01
               7.5000000e-01     5.0000000e-02     5.0000000e-02
               8.0000000e-01     1.0000000e-01     0.0000000e+00
               9.0000000e-01     0.0000000e+00     0.0000000e+00
               7.0000000e-01     1.0000000e-01     1.0000000e-01
               8.0000000e-01     0.0000000e+00     1.0000000e-01
               8.5000000e-01     5.0000000e-02     0.0000000e+00
               8.5000000e-01     0.0000000e+00     5.0000000e-02
               7.5000000e-01     1.0000000e-01     5.0000000e-02
               7.5000000e-01     5.0000000e-02     1.0000000e-01
               8.0000000e-01     5.0000000e-02     5.0000000e-02
               9.5000000e-01     0.0000000e+00     0.0000000e+00
               8.5000000e-01     1.0000000e-01     0.0000000e+00
               8.5000000e-01     0.0000000e+00     1.0000000e-01
               7.5000000e-01     1.0000000e-01     1.0000000e-01
               8.0000000e-01     1.0000000e-01     5.0000000e-02
               9.0000000e-01     0.0000000e+00     5.0000000e-02
               9.0000000e-01     5.0000000e-02     0.0000000e+00
               8.0000000e-01     5.0000000e-02     1.0000000e-01
               8.5000000e-01     5.0000000e-02     5.0000000e-02
               1.0000000e+00     0.0000000e+00     0.0000000e+00
               9.0000000e-01     1.0000000e-01     0.0000000e+00
               9.0000000e-01     0.0000000e+00     1.0000000e-01
               8.0000000e-01     1.0000000e-01     1.0000000e-01
               9.5000000e-01     0.0000000e+00     5.0000000e-02
               8.5000000e-01     1.0000000e-01     5.0000000e-02
               9.5000000e-01     5.0000000e-02     0.0000000e+00
               8.5000000e-01     5.0000000e-02     1.0000000e-01
               9.0000000e-01     5.0000000e-02     5.0000000e-02
               1.0000000e+00     0.0000000e+00     5.0000000e-02
               9.5000000e-01     0.0000000e+00     1.0000000e-01
               9.5000000e-01     1.0000000e-01     0.0000000e+00
               1.0000000e+00     5.0000000e-02     0.0000000e+00
               8.5000000e-01     1.0000000e-01     1.0000000e-01
               9.0000000e-01     1.0000000e-01     5.0000000e-02
               9.0000000e-01     5.0000000e-02     1.0000000e-01
               9.5000000e-01     5.0000000e-02     5.0000000e-02
               1.0000000e+00     1.0000000e-01     0.0000000e+00
               1.0000000e+00     0.0000000e+00     1.0000000e-01
               9.0000000e-01     1.0000000e-01     1.0000000e-01
               1.0000000e+00     5.0000000e-02     5.0000000e-02
               9.5000000e-01     5.0000000e-02     1.0000000e-01
               9.5000000e-01     1.0000000e-01     5.0000000e-02
               9.5000000e-01     1.0000000e-01     1.0000000e-01
               1.0000000e+00     5.0000000e-02     1.0000000e-01
               1.0000000e+00     1.0000000e-01     5.0000000e-02
               1.0000000e+00     1.0000000e-01     1.0000000e-01
            </DataArray>
         </Points>
         <Cells>
            <DataArray type="Int32" Name="connectivity" format="ascii">
               0  3  9  1  2  7  17  8  3  6  15  9  7  16  26  17  6  10  23  15  16  22  35  26  10  19  32  23  22  31  44  35  19  27  41  32  31  40  53  44  27  37  52  41  40  49  62  53  37  46  58  52  49  59  71  62  46  56  69  58  59  68  80  71  56  64  77  69  68  79  89  80  64  74  85  77  79  87  98  89  74  84  94  85  87  95  107  98  84  91  103  94  95  105  116  107  91  101  112  103  105  114  125  116  101  110  122  112  114  121  134  125  110  118  130  122  121  131  143  134  118  129  139  130  131  141  152  143  129  136  148  139  141  149  161  152  136  145  159  148  149  158  170  161  145  153  168  159  158  166  178  170  153  162  174  168  166  171  182  178  1  9  11  4  8  17  25  13  9  15  20  11  17  26  33  25  15  23  29  20  26  35  43  33  23  32  36  29  35  44  51  43  32  41  48  36  44  53  61  51  41  52  54  48  53  62  70  61  52  58  63  54  62  71  76  70  58  69  72  63  71  80  86  76  69  77  83  72  80  89  96  86  77  85  93  83  89  98  104  96  85  94  100  93  98  107  113  104  94  103  108  100  107  116  123  113  103  112  117  108  116  125  133  123  112  122  128  117  125  134  140  133  122  130  135  128  134  143  150  140  130  139  144  135  143  152  157  150  139  148  154  144  152  161  167  157  148  159  163  154  161  170  176  167  159  168  173  163  170  178  184  176  168  174  179  173  178  182  187  184  2  7  17  8  5  12  24  14  7  16  26  17  12  21  34  24  16  22  35  26  21  30  42  34  22  31  44  35  30  39  50  42  31  40  53  44  39  47  60  50  40  49  62  53  47  55  67  60  49  59  71  62  55  66  78  67  59  68  80  71  66  75  88  78  68  79  89  80  75  82  97  88  79  87  98  89  82  90  106  97  87  95  107  98  90  102  115  106  95  105  116  107  102  111  124  115  105  114  125  116  111  120  132  124  114  121  134  125  120  127  142  132  121  131  143  134  127  138  151  142  131  141  152  143  138  147  160  151  141  149  161  152  147  155  169  160  149  158  170  161  155  164  177  169  158  166  178  170  164  172  183  177  166  171  182  178  172  180  186  183  8  17  25  13  14  24  28  18  17  26  33  25  24  34  38  28  26  35  43  33  34  42  45  38  35  44  51  43  42  50  57  45  44  53  61  51  50  60  65  57  53  62  70  61  60  67  73  65  62  71  76  70  67  78  81  73  71  80  86  76  78  88  92  81  80  89  96  86  88  97  99  92  89  98  104  96  97  106  109  99  98  107  113  104  106  115  119  109  107  116  123  113  115  124  126  119  116  125  133  123  124  132  137  126  125  134  140  133  132  142  146  137  134  143  150  140  142  151  156  146  143  152  157  150  151  160  165  156  152  161  167  157  160  169  175  165  161  170  176  167  169  177  181  175  170  178  184  176  177  183  185  181  178  182  187  184  183  186  188  185  
            </DataArray>
            <DataArray type="Int32" Name="offsets" format="ascii">
               8  16  24  32  40  48  56  64  72  80  88  96  104  112  120  128  136  144  152  160  168  176  184  192  200  208  216  224  232  240  248  256  264  272  280  288  296  304  312  320  328  336  344  352  360  368  376  384  392  400  408  416  424  432  440  448  456  464  472  480  488  496  504  512  520  528  536  544  552  560  568  576  584  592  600  608  616  624  632  640  
            </DataArray>
            <DataArray type="Int32" Name="types" format="ascii">
               12  12  12  12  12  12  12  12  12  12  12  12  12  12  12  12  12  12  12  12  12  12  12  12  12  12  12  12  12  12  12  12  12  12  12  12  12  12  12  12  12  12  12  12  12  12  12  12  12  12  12  12  12  12  12  12  12  12  12  12  12  12  12  12  12  12  12  12  12  12  12  12  12  12  12  12  12  12  12  12  
            </DataArray>
         </Cells>
         <PointData>
            <DataArray type="Int32" Name="node-id" NumberOfComponents="1" format="ascii">
               1  2  3  4  5  6  7  8  9  10  11  12  13  14  15  16  17  18  19  20  21  22  23  24  25  26  27  28  29  30  31  32  33  34  35  36  37  38  39  40  41  42  43  44  45  46  47  48  49  50  51  52  53  54  55  56  57  58  59  60  61  62  63  64  65  66  67  68  69  70  71  72  73  74  75  76  77  78  79  80  81  82  83  84  85  86  87  88  89  90  91  92  93  94  95  96  97  98  99  100  101  102  103  104  105  106  107  108  109  110  111  112  113  114  115  116  117  118  119  120  121  122  123  124  125  126  127  128  129  130  131  132  133  134  135  136  137  138  139  140  141  142  143  144  145  146  147  148  149  150  151  152  153  154  155  156  157  158  159  160  161  162  163  164  165  166  167  168  169  170  171  172  173  174  175  176  177  178  179  180  181  182  183  184  185  186  187  188  189  
            </DataArray>
            <DataArray type="Float64" Name="ux" NumberOfComponents="1" format="ascii">
               0.0000000e+00    0.0000000e+00    0.0000000e+00   -1.2767269e-05    0.0000000e+00    0.0000000e+00   -2.5009462e-05    5.0548499e-18    0.0000000e+00   -1.2420314e-05   -3.6736154e-05   -1.2767269e-05    1.2767269e-05    0.0000000e+00    0.0000000e+00   -2.5068059e-05    1.0008998e-17    9.9528278e-20    0.0000000e+00   -4.7794896e-05   -2.5009462e-05    2.5009462e-05    1.4396106e-17   -3.6779562e-05    1.2420314e-05   -4.8461332e-18    2.1527855e-19   -5.8179256e-05    1.2767269e-05   -3.6736154e-05    3.6736154e-05    1.8309284e-17   -4.7833153e-05   -9.5796879e-18    2.5068059e-05    3.2564689e-19   -4.7794896e-05   -6.7894311e-05    2.5009462e-05    4.7794896e-05    2.1760563e-17   -5.8218269e-05    3.6779562e-05   -1.3741930e-17    4.3613444e-19    3.6736154e-05   -7.6939301e-05    5.8179256e-05   -5.8179256e-05    2.4749772e-17    4.7833153e-05   -1.7449492e-17   -6.7933317e-05    5.4059655e-19   -6.7894311e-05    6.7894311e-05   -8.5314306e-05    4.7794896e-05   -7.6978300e-05    2.7333191e-17    5.8218269e-05   -2.0698769e-17    6.5389237e-19   -7.6939301e-05   -9.3019305e-05    5.8179256e-05    7.6939301e-05    6.7933317e-05    2.9441472e-17   -8.5353306e-05   -2.3491797e-17    7.1850878e-19   -8.5314306e-05    6.7894311e-05   -1.0005431e-04    8.5314306e-05   -2.5837585e-17   -9.3058305e-05    7.6978300e-05    3.1219176e-17    8.3559066e-19    7.6939301e-05    9.3019305e-05   -9.3019305e-05   -1.0641931e-04   -1.0009330e-04   -2.7810811e-17    3.2688427e-17    8.5353306e-05    9.0520753e-19    1.0005431e-04   -1.1211431e-04    8.5314306e-05   -1.0005431e-04   -1.0645830e-04    3.3854266e-17   -2.9374792e-17    9.3058305e-05    1.0400952e-18    9.3019305e-05   -1.0641931e-04   -1.1713930e-04    1.0641931e-04   -1.1215331e-04   -3.0610378e-17    3.4667967e-17    1.0009330e-04    1.1061124e-18   -1.1211431e-04    1.0005431e-04   -1.2149430e-04    1.1211431e-04   -1.1717831e-04   -3.1707881e-17    3.5207305e-17    1.0645830e-04    1.1734993e-18   -1.1713930e-04   -1.2517930e-04    1.0641931e-04    1.1713930e-04    3.5495620e-17   -1.2153330e-04   -3.2310489e-17    1.1215331e-04    1.2912087e-18    1.1211431e-04    1.2149430e-04   -1.2149430e-04   -1.2819431e-04   -1.2521830e-04    3.5448144e-17    1.1717831e-04   -3.2673872e-17    1.3654090e-18   -1.2517930e-04   -1.3053925e-04    1.1713930e-04    1.2517930e-04   -1.2823330e-04   -3.2801506e-17    3.5299843e-17    1.2153330e-04    1.3591998e-18   -1.2819431e-04   -1.3221418e-04    1.2149430e-04    1.2819431e-04   -1.3057832e-04    3.5021414e-17   -3.2685986e-17    1.2521830e-04    1.3305081e-18   -1.3322188e-04   -1.3053925e-04    1.3053925e-04    1.2517930e-04   -3.2518836e-17    3.4944973e-17   -1.3225360e-04    1.2823330e-04    1.3130761e-18   -1.3356957e-04   -1.3221418e-04    1.3221418e-04    1.2819431e-04    3.4714623e-17   -3.2423859e-17   -1.3325407e-04    1.3057832e-04    1.1845501e-18    3.4635061e-17    1.3322188e-04   -1.3322188e-04   -1.3359418e-04    1.3053925e-04   -3.2374741e-17    1.3225360e-04    1.0102937e-18   -1.3356957e-04    1.3356957e-04    1.3221418e-04    9.9126709e-19    1.3325407e-04   -3.2363299e-17    1.3322188e-04    1.3359418e-04   -3.2388436e-17    1.3356957e-04
            </DataArray>
            <DataArray type="Float64" Name="fx" NumberOfComponents="1" format="ascii">
               2.5690676e+01    4.8618649e+01   -2.0309088e-11   -1.4210855e-14    2.5690676e+01   -2.5690676e+01    1.4210855e-14   -7.9936058e-15   -9.9120712e-13   -7.1054274e-15    7.1054274e-15   -1.4210855e-14    1.4210855e-14    1.9213076e-11   -4.8618649e+01   -4.6185278e-14   -8.8817842e-15   -6.2172489e-15   -2.5690676e+01    4.9737992e-14   -1.4210855e-14    7.1054274e-15    1.6875390e-14   -1.4210855e-14   -3.5527137e-15    7.9936058e-15    1.4210855e-14    1.2079227e-13    3.5527137e-15    3.9079850e-14   -1.7763568e-14    7.1054274e-15    3.5527137e-15   -8.8817842e-16    3.1974423e-14   -1.4210855e-14    7.1054274e-15   -2.8421709e-14    0.0000000e+00    1.7763568e-14    5.7731597e-14   -9.5923269e-14    6.3948846e-14    4.4408921e-15    4.2632564e-14    1.7763568e-14   -5.3290705e-14    6.7501560e-14    5.3290705e-14    4.1744386e-14    6.3948846e-14   -8.8817842e-15   -7.1054274e-15    1.1457502e-13    1.4566126e-13    1.2789769e-13   -2.2204460e-13   -1.4210855e-14    8.8817842e-14    7.1054274e-15   -3.1974423e-14   -5.3290705e-15    4.6274096e-13   -3.9079850e-14   -5.5067062e-14   -1.0302870e-13   -1.3855583e-13    1.0302870e-13   -1.5543122e-13   -1.7763568e-14    3.9968029e-14   -1.7674751e-13    1.6520119e-13   -7.1054274e-15   -1.2612134e-13    1.6875390e-13    3.5527137e-14   -1.0302870e-13   -3.5527137e-15   -1.3899992e-13    8.6153307e-14    5.6843419e-14   -2.4868996e-13   -8.3488771e-14    2.4691360e-13   -1.0658141e-13    3.1974423e-14    1.6386892e-13   -4.7961635e-14   -3.4905412e-13    1.3145041e-13    1.2079227e-13   -1.4210855e-13    1.3500312e-13    6.7856831e-13    2.4513724e-13   -1.7053026e-13    9.2370556e-14    1.7541524e-13    3.0198066e-14   -4.9737992e-14   -3.0198066e-14    1.0480505e-13    1.1901591e-13    2.3181457e-13    5.9063865e-14   -1.9539925e-13    5.7687188e-13   -1.9539925e-13   -3.5527137e-14    2.4336089e-13    2.3447910e-13   -3.4994230e-13   -2.5579538e-13   -1.9140245e-13    3.6237680e-13    1.1723955e-13    3.4283687e-13    7.3185902e-13   -1.9007018e-13    2.1493918e-13    4.8694382e-13   -5.0093263e-13   -3.6859404e-14   -9.2370556e-14   -3.9968029e-14   -1.4566126e-13   -1.9806379e-13   -2.4602542e-13    3.7392311e-13    2.2293278e-13    3.6348702e-13    4.2632564e-14   -2.3891999e-13    7.8315132e-13    1.9717561e-13    3.2418512e-13    6.2172489e-14   -1.5187851e-13    1.0222934e-12    5.7509553e-14    7.0210504e-13    3.0109248e-13   -1.7763568e-14    3.4283687e-13    5.5511151e-14    2.8421709e-14    4.3520743e-14   -1.0569323e-13   -2.2798430e-13    2.8488323e-13   -5.5422333e-13    2.8654856e-13    1.7585933e-13   -5.5377924e-13    1.3367085e-13   -3.2773784e-13    5.0270899e-13    7.5724843e-13    9.0416563e-13    2.6911806e-13    9.1371355e-14   -2.3638036e-13    1.9850788e-13    1.5898394e-13    2.6556535e-13   -2.3964164e-13    8.3943963e-13    5.4622973e-14    1.5853985e-13    9.7755137e-14   -7.2541972e-13   -1.5387691e-13    2.0494717e-13   -1.3377494e-13    3.7703174e-13    7.1001885e-13   -4.4408921e-13   -2.3121505e-12    1.7533197e-13   -5.1270099e-13    1.4654944e-14   -1.3664625e-12   -8.8995478e-13   -1.8157698e-13    1.1723955e-13   -5.5457722e-13   -5.8175686e-14    3.3251180e-14
            </DataArray>
            <DataArray type="Float64" Name="uy" NumberOfComponents="1" format="ascii">
               0.0000000e+00    0.0000000e+00    0.0000000e+00   -2.5348884e-06    0.0000000e+00    0.0000000e+00   -2.3596472e-06    3.4791068e-18    0.0000000e+00    1.3524622e-18   -2.2080046e-06    2.5348884e-06    2.5348884e-06    0.0000000e+00    0.0000000e+00    8.2208783e-18    1.1203159e-17    2.8377614e-18    0.0000000e+00   -2.0798045e-06    2.3596472e-06    2.3596472e-06    2.3494499e-17    1.9536221e-17    3.4413238e-18    3.4341476e-18    1.0746497e-17   -1.9500642e-06   -2.5348884e-06    2.2080046e-06    2.2080046e-06    3.9834967e-17    3.4926381e-17    1.1162294e-17    1.2398092e-17    2.3064881e-17    2.0798045e-06   -1.8199935e-06   -2.3596472e-06    2.0798045e-06    5.9724849e-17    5.3893719e-17    2.5805507e-17    2.3452834e-17    3.9438135e-17   -2.2080046e-06   -1.6900003e-06    1.9500642e-06    1.9500642e-06    8.2767057e-17    4.3245978e-17    3.9773157e-17    7.6015840e-17    5.9397491e-17    1.8199935e-06    1.8199935e-06   -1.5599999e-06   -2.0798045e-06    1.0073988e-16    1.0839827e-16    6.4264999e-17    5.9689241e-17    8.2442319e-17    1.6900003e-06   -1.4300000e-06   -1.9500642e-06    1.6900003e-06    8.8390032e-17    1.3634761e-16    1.2775472e-16    8.2696938e-17    1.0820573e-16    1.5599999e-06   -1.8199935e-06   -1.3000000e-06    1.5599999e-06    1.0840991e-16    1.5658575e-16    1.1511018e-16    1.6605812e-16    1.3611240e-16   -1.6900003e-06    1.4300000e-06    1.4300000e-06   -1.1700000e-06    1.8693203e-16    1.3627006e-16    1.9730508e-16    1.4417082e-16    1.6585269e-16    1.3000000e-06   -1.0400000e-06   -1.5599999e-06    1.3000000e-06    2.1850875e-16    2.2975422e-16    1.6605152e-16    1.7500284e-16    1.9718826e-16   -1.4300000e-06    1.1700000e-06   -9.0999998e-07    1.1700000e-06    2.5119943e-16    1.9724316e-16    2.6310111e-16    2.0704241e-16    2.2951393e-16    1.0400000e-06   -1.3000000e-06   -7.8000011e-07    1.0400000e-06    2.8448356e-16    2.2959974e-16    2.9701705e-16    2.4039584e-16    2.6295158e-16    9.0999998e-07   -6.4999892e-07   -1.1700000e-06    9.0999998e-07    3.3110626e-16    3.1734748e-16    2.6291069e-16    2.7466057e-16    2.9689897e-16   -1.0400000e-06    7.8000011e-07    7.8000011e-07   -5.2000263e-07    3.4992180e-16    3.6534643e-16    3.0941664e-16    2.9693733e-16    3.3114173e-16    6.4999892e-07   -3.9004127e-07   -9.0999998e-07    6.4999892e-07    3.8224789e-16    3.3109245e-16    3.9922783e-16    3.4480149e-16    3.6523756e-16    5.2000263e-07   -2.5965389e-07   -7.8000011e-07    5.2000263e-07    4.1459224e-16    4.3318570e-16    3.6527301e-16    3.8071246e-16    3.9927836e-16   -1.2837177e-07    3.9004127e-07    3.9004127e-07   -6.4999892e-07    3.9928170e-16    4.6693152e-16    4.4658960e-16    4.1648605e-16    4.3306198e-16   -5.3539978e-08    2.5965389e-07    2.5965389e-07   -5.2000263e-07    5.0044194e-16    4.3316026e-16    4.7907903e-16    4.5198493e-16    4.6696995e-16    5.3403410e-16    1.2837177e-07    1.2837177e-07    5.1231687e-16   -3.9004127e-07    4.6688048e-16    4.8705951e-16    5.0058435e-16    5.3539978e-08    5.3539978e-08   -2.5965389e-07    5.3403326e-16    5.2201434e-16    5.0062644e-16   -1.2837177e-07    5.5558675e-16    5.3393114e-16   -5.3539978e-08
            </DataArray>
            <DataArray type="Float64" Name="fy" NumberOfComponents="1" format="ascii">