<?xml version="1.0"?>
<VTKFile type="UnstructuredGrid" version="0.1" byte_order="LittleEndian">
   <UnstructuredGrid>
      <Piece NumberOfPoints="189" NumberOfCells="80">
         <Points>
            <DataArray type="Float64" NumberOfComponents="3" format="ascii">
               0.0000000e+00     0.0000000e+00     0.0000000e+00
               0.0000000e+00     5.0000000e-02     0.0000000e+00
               0.0000000e+00     0.0000000e+00     5.0000000e-02
               5.0000000e-02     0.0000000e+00     0.0000000e+00
               0.0000000e+00     1.0000000e-01     0.0000000e+00
               0.0000000e+00     0.0000000e+00     1.0000000e-01
               1.0000000e-01     0.0000000e+00     0.0000000e+00
               5.0000000e-02     0.0000000e+00     5.0000000e-02
               0.0000000e+00     5.0000000e-02     5.0000000e-02
               5.0000000e-02     5.0000000e-02     0.0000000e+00
               1.5000000e-01     0.0000000e+00     0.0000000e+00
               5.0000000e-02     1.0000000e-01     0.0000000e+00
               5.0000000e-02     0.0000000e+00     1.0000000e-01
               0.0000000e+00     1.0000000e-01     5.0000000e-02
               0.0000000e+00     5.0000000e-02     1.0000000e-01
               1.0000000e-01     5.0000000e-02     0.0000000e+00
               1.0000000e-01     0.0000000e+00     5.0000000e-02
               5.0000000e-02     5.0000000e-02     5.0000000e-02
               0.0000000e+00     1.0000000e-01     1.0000000e-01
               2.0000000e-01     0.0000000e+00     0.0000000e+00
               1.0000000e-01     1.0000000e-01     0.0000000e+00
               1.0000000e-01     0.0000000e+00     1.0000000e-01
               1.5000000e-01     0.0000000e+00     5.0000000e-02
               1.5000000e-01     5.0000000e-02     0.0000000e+00
               5.0000000e-02     5.0000000e-02     1.0000000e-01
               5.0000000e-02     1.0000000e-01     5.0000000e-02
               1.0000000e-01     5.0000000e-02     5.0000000e-02
               2.5000000e-01     0.0000000e+00     0.0000000e+00
               5.0000000e-02     1.0000000e-01     1.0000000e-01
               1.5000000e-01     1.0000000e-01     0.0000000e+00
               1.5000000e-01     0.0000000e+00     1.0000000e-01
               2.0000000e-01     0.0000000e+00     5.0000000e-02
               2.0000000e-01     5.0000000e-02     0.0000000e+00
               1.0000000e-01     1.0000000e-01     5.0000000e-02
               1.0000000e-01     5.0000000e-02     1.0000000e-01
               1.5000000e-01     5.0000000e-02     5.0000000e-02
               2.0000000e-01     1.0000000e-01     0.0000000e+00
               3.0000000e-01     0.0000000e+00     0.0000000e+00
               1.0000000e-01     1.0000000e-01     1.0000000e-01
               2.0000000e-01     0.0000000e+00     1.0000000e-01
               2.5000000e-01     0.0000000e+00     5.0000000e-02
               2.5000000e-01     5.0000000e-02     0.0000000e+00
               1.5000000e-01     5.0000000e-02     1.0000000e-01
               1.5000000e-01     1.0000000e-01     5.0000000e-02
               2.0000000e-01     5.0000000e-02     5.0000000e-02
               1.5000000e-01     1.0000000e-01     1.0000000e-01
               3.5000000e-01     0.0000000e+00     0.0000000e+00
               2.5000000e-01     0.0000000e+00     1.0000000e-01
               2.5000000e-01     1.0000000e-01     0.0000000e+00
               3.0000000e-01     0.0000000e+00     5.0000000e-02
               2.0000000e-01     5.0000000e-02     1.0000000e-01
               2.0000000e-01     1.0000000e-01     5.0000000e-02
               3.0000000e-01     5.0000000e-02     0.0000000e+00
               2.5000000e-01     5.0000000e-02     5.0000000e-02
               3.0000000e-01     1.0000000e-01     0.0000000e+00
               3.0000000e-01     0.0000000e+00     1.0000000e-01
               4.0000000e-01     0.0000000e+00     0.0000000e+00
               2.0000000e-01     1.0000000e-01     1.0000000e-01
               3.5000000e-01     5.0000000e-02     0.0000000e+00
               3.5000000e-01     0.0000000e+00     5.0000000e-02
               2.5000000e-01     5.0000000e-02     1.0000000e-01
               2.5000000e-01     1.0000000e-01     5.0000000e-02
               3.0000000e-01     5.0000000e-02     5.0000000e-02
               3.5000000e-01     1.0000000e-01     0.0000000e+00
               4.5000000e-01     0.0000000e+00     0.0000000e+00
               2.5000000e-01     1.0000000e-01     1.0000000e-01
               3.5000000e-01     0.0000000e+00     1.0000000e-01
               3.0000000e-01     5.0000000e-02     1.0000000e-01
               4.0000000e-01     0.0000000e+00     5.0000000e-02
               4.0000000e-01     5.0000000e-02     0.0000000e+00
               3.0000000e-01     1.0000000e-01     5.0000000e-02
               3.5000000e-01     5.0000000e-02     5.0000000e-02
               4.0000000e-01     1.0000000e-01     0.0000000e+00
               3.0000000e-01     1.0000000e-01     1.0000000e-01
               5.0000000e-01     0.0000000e+00     0.0000000e+00
               4.0000000e-01     0.0000000e+00     1.0000000e-01
               3.5000000e-01     1.0000000e-01     5.0000000e-02
               4.5000000e-01     5.0000000e-02     0.0000000e+00
               3.5000000e-01     5.0000000e-02     1.0000000e-01
               4.5000000e-01     0.0000000e+00     5.0000000e-02
               4.0000000e-01     5.0000000e-02     5.0000000e-02
               3.5000000e-01     1.0000000e-01     1.0000000e-01
               4.5000000e-01     0.0000000e+00     1.0000000e-01
               4.5000000e-01     1.0000000e-01     0.0000000e+00
               5.5000000e-01     0.0000000e+00     0.0000000e+00
               5.0000000e-01     5.0000000e-02     0.0000000e+00
               4.0000000e-01     1.0000000e-01     5.0000000e-02
               5.0000000e-01     0.0000000e+00     5.0000000e-02
               4.0000000e-01     5.0000000e-02     1.0000000e-01
               4.5000000e-01     5.0000000e-02     5.0000000e-02
               5.0000000e-01     0.0000000e+00     1.0000000e-01
               6.0000000e-01     0.0000000e+00     0.0000000e+00
               4.0000000e-01     1.0000000e-01     1.0000000e-01
               5.0000000e-01     1.0000000e-01     0.0000000e+00
               5.5000000e-01     5.0000000e-02     0.0000000e+00
               5.5000000e-01     0.0000000e+00     5.0000000e-02
               4.5000000e-01     1.0000000e-01     5.0000000e-02
               4.5000000e-01     5.0000000e-02     1.0000000e-01
               5.0000000e-01     5.0000000e-02     5.0000000e-02
               4.5000000e-01     1.0000000e-01     1.0000000e-01
               5.5000000e-01     1.0000000e-01     0.0000000e+00
               6.5000000e-01     0.0000000e+00     0.0000000e+00
               5.5000000e-01     0.0000000e+00     1.0000000e-01
               6.0000000e-01     5.0000000e-02     0.0000000e+00
               5.0000000e-01     1.0000000e-01     5.0000000e-02
               6.0000000e-01     0.0000000e+00     5.0000000e-02
               5.0000000e-01     5.0000000e-02     1.0000000e-01
               5.5000000e-01     5.0000000e-02     5.0000000e-02
               6.0000000e-01     1.0000000e-01     0.0000000e+00
               5.0000000e-01     1.0000000e-01     1.0000000e-01
               7.0000000e-01     0.0000000e+00     0.0000000e+00
               6.0000000e-01     0.0000000e+00     1.0000000e-01
               6.5000000e-01     5.0000000e-02     0.0000000e+00
               5.5000000e-01     1.0000000e-01     5.0000000e-02
               6.5000000e-01     0.0000000e+00     5.0000000e-02
               5.5000000e-01     5.0000000e-02     1.0000000e-01
               6.0000000e-01     5.0000000e-02     5.0000000e-02
               6.5000000e-01     1.0000000e-01     0.0000000e+00
               7.5000000e-01     0.0000000e+00     0.0000000e+00
               5.5000000e-01     1.0000000e-01     1.0000000e-01
               6.5000000e-01     0.0000000e+00     1.0000000e-01
               7.0000000e-01     0.0000000e+00     5.0000000e-02
               7.0000000e-01     5.0000000e-02     0.0000000e+00
               6.0000000e-01     1.0000000e-01     5.0000000e-02
               6.0000000e-01     5.0000000e-02     1.0000000e-01
               6.5000000e-01     5.0000000e-02     5.0000000e-02
               6.0000000e-01     1.0000000e-01     1.0000000e-01
               7.0000000e-01     0.0000000e+00     1.0000000e-01
               7.0000000e-01     1.0000000e-01     0.0000000e+00
               8.0000000e-01     0.0000000e+00     0.0000000e+00
               7.5000000e-01     5.0000000e-02     0.0000000e+00
               7.5000000e-01     0.0000000e+00     5.0000000e-02
               6.5000000e-01     5.0000000e-02     1.0000000e-01
               6.5000000e-01     1.0000000e-01     5.0000000e-02
               7.0000000e-01     5.0000000e-02     5.0000000e-02
               7.5000000e-01     1.0000000e-01     0.0000000e+00
               8.5000000e-01     0.0000000e+00     0.0000000e+00
               6.5000000e-01     1.0000000e-01     1.0000000e-01
               7.5000000e-01     0.0000000e+00     1.0000000e-01
               8.0000000e-01     5.0000000e-02     0.0000000e+00
               7.0000000e-01     1.0000000e-01     5.0000000e-02
               8.0000000e-01     0.0000000e+00     5.0000000e-02
               7.0000000e-01     5.0000000e-02     1.0000000e-01
               7.5000000e-01     5.0000000e-02     5.0000000e-02
               8.0000000e-01     1.0000000e-01     0.0000000e+00
               9.0000000e-01     0.0000000e+00     0.0000000e+00
               7.0000000e-01     1.0000000e-01     1.0000000e-01
               8.0000000e-01     0.0000000e+00     1.0000000e-01
               8.5000000e-01     5.0000000e-02     0.0000000e+00
               8.5000000e-01     0.0000000e+00     5.0000000e-02
               7.5000000e-01     1.0000000e-01     5.0000000e-02
               7.5000000e-01     5.0000000e-02     1.0000000e-01
               8.0000000e-01     5.0000000e-02     5.0000000e-02
               9.5000000e-01     0.0000000e+00     0.0000000e+00
               8.5000000e-01     1.0000000e-01     0.0000000e+00
               8.5000000e-01     0.0000000e+00     1.0000000e-01
               7.5000000e-01     1.0000000e-01     1.0000000e-01
               8.0000000e-01     1.0000000e-01     5.0000000e-02
               9.0000000e-01     0.0000000e+00     5.0000000e-02
               9.0000000e-01     5.0000000e-02     0.0000000e+00
               8.0000000e-01     5.0000000e-02     1.0000000e-01
               8.5000000e-01     5.0000000e-02     5.0000000e-02
               1.0000000e+00     0.0000000e+00     0.0000000e+00
               9.0000000e-01     1.0000000e-01     0.0000000e+00
               9.0000000e-01     0.0000000e+00     1.0000000e-01
               8.0000000e-01     1.0000000e-01     1.0000000e-01
               9.5000000e-01     0.0000000e+00     5.0000000e-02
               8.5000000e-01     1.0000000e-01     5.0000000e-02
               9.5000000e-01     5.0000000e-02     0.0000000e+00
               8.5000000e-01     5.0000000e-02     1.0000000e-01
               9.0000000e-01     5.0000000e-02     5.0000000e-02
               1.0000000e+00     0.0000000e+00     5.0000000e-02
               9.5000000e-01     0.0000000e+00     1.0000000e-01
               9.5000000e-01     1.0000000e-01     0.0000000e+00
               1.0000000e+00     5.0000000e-02     0.0000000e+00
               8.5000000e-01     1.0000000e-01     1.0000000e-01
               9.0000000e-01     1.0000000e-01     5.0000000e-02
               9.0000000e-01     5.0000000e-02     1.0000000e-01
               9.5000000e-01     5.0000000e-02     5.0000000e-02
               1.0000000e+00     1.0000000e-01     0.0000000e+00
               1.0000000e+00     0.0000000e+00     1.0000000e-01
               9.0000000e-01     1.0000000e-01     1.0000000e-01
               1.0000000e+00     5.0000000e-02     5.0000000e-02
               9.5000000e-01     5.0000000e-02     1.0000000e-01
               9.5000000e-01     1.0000000e-01     5.0000000e-02
               9.5000000e-01     1.0000000e-01     1.0000000e-01
               1.0000000e+00     5.0000000e-02     1.0000000e-01
               1.0000000e+00     1.0000000e-01     5.0000000e-02
               1.0000000e+00     1.0000000e-01     1.0000000e-01
            </DataArray>
         </Points>
         <Cells>
            <DataArray type="Int32" Name="connectivity" format="ascii">
               0  3  9  1  2  7  17  8  3  6  15  9  7  16  26  17  6  10  23  15  16  22  35  26  10  19  32  23  22  31  44  35  19  27  41  32  31  40  53  44  27  37  52  41  40  49  62  53  37  46  58  52  49  59  71  62  46  56  69  58  59  68  80  71  56  64  77  69  68  79  89  80  64  74  85  77  79  87  98  89  74  84  94  85  87  95  107  98  84  91  103  94  95  105  116  107  91  101  112  103  105  114  125  116  101  110  122  112  114  121  134  125  110  118  130  122  121  131  143  134  118  129  139  130  131  141  152  143  129  136  148  139  141  149  161  152  136  145  159  148  149  158  170  161  145  153  168  159  158  166  178  170  153  162  174  168  166  171  182  178  1  9  11  4  8  17  25  13  9  15  20  11  17  26  33  25  15  23  29  20  26  35  43  33  23  32  36  29  35  44  51  43  32  41  48  36  44  53  61  51  41  52  54  48  53  62  70  61  52  58  63  54  62  71  76  70  58  69  72  63  71  80  86  76  69  77  83  72  80  89  96  86  77  85  93  83  89  98  104  96  85  94  100  93  98  107  113  104  94  103  108  100  107  116  123  113  103  112  117  108  116  125  133  123  112  122  128  117  125  134  140  133  122  130  135  128  134  143  150  140  130  139  144  135  143  152  157  150  139  148  154  144  152  161  167  157  148  159  163  154  161  170  176  167  159  168  173  163  170  178  184  176  168  174  179  173  178  182  187  184  2  7  17  8  5  12  24  14  7  16  26  17  12  21  34  24  16  22  35  26  21  30  42  34  22  31  44  35  30  39  50  42  31  40  53  44  39  47  60  50  40  49  62  53  47  55  67  60  49  59  71  62  55  66  78  67  59  68  80  71  66  75  88  78  68  79  89  80  75  82  97  88  79  87  98  89  82  90  106  97  87  95  107  98  90  102  115  106  95  105  116  107  102  111  124  115  105  114  125  116  111  120  132  124  114  121  134  125  120  127  142  132  121  131  143  134  127  138  151  142  131  141  152  143  138  147  160  151  141  149  161  152  147  155  169  160  149  158  170  161  155  164  177  169  158  166  178  170  164  172  183  177  166  171  182  178  172  180  186  183  8  17  25  13  14  24  28  18  17  26  33  25  24  34  38  28  26  35  43  33  34  42  45  38  35  44  51  43  42  50  57  45  44  53  61  51  50  60  65  57  53  62  70  61  60  67  73  65  62  71  76  70  67  78  81  73  71  80  86  76  78  88  92  81  80  89  96  86  88  97  99  92  89  98  104  96  97  106  109  99  98  107  113  104  106  115  119  109  107  116  123  113  115  124  126  119  116  125  133  123  124  132  137  126  125  134  140  133  132  142  146  137  134  143  150  140  142  151  156  146  143  152  157  150  151  160  165  156  152  161  167  157  160  169  175  165  161  170  176  167  169  177  181  175  170  178  184  176  177  183  185  181  178  182  187  184  183  186  188  185  
            </DataArray>
            <DataArray type="Int32" Name="offsets" format="ascii">
               8  16  24  32  40  48  56  64  72  80  88  96  104  112  120  128  136  144  152  160  168  176  184  192  200  208  216  224  232  240  248  256  264  272  280  288  296  304  312  320  328  336  344  352  360  368  376  384  392  400  408  416  424  432  440  448  456  464  472  480  488  496  504  512  520  528  536  544  552  560  568  576  584  592  600  608  616  624  632  640  
            </DataArray>
            <DataArray type="Int32" Name="types" format="ascii">
               12  12  12  12  12  12  12  12  12  12  12  12  12  12  12  12  12  12  12  12  12  12  12  12  12  12  12  12  12  12  12  12  12  12  12  12  12  12  12  12  12  12  12  12  12  12  12  12  12  12  12  12  12  12  12  12  12  12  12  12  12  12  12  12  12  12  12  12  12  12  12  12  12  12  12  12  12  12  12  12  
            </DataArray>
         </Cells>
         <PointData>
            <DataArray type="Int32" Name="node-id" NumberOfComponents="1" format="ascii">
               1  2  3  4  5  6  7  8  9  10  11  12  13  14  15  16  17  18  19  20  21  22  23  24  25  26  27  28  29  30  31  32  33  34  35  36  37  38  39  40  41  42  43  44  45  46  47  48  49  50  51  52  53  54  55  56  57  58  59  60  61  62  63  64  65  66  67  68  69  70  71  72  73  74  75  76  77  78  79  80  81  82  83  84  85  86  87  88  89  90  91  92  93  94  95  96  97  98  99  100  101  102  103  104  105  106  107  108  109  110  111  112  113  114  115  116  117  118  119  120  121  122  123  124  125  126  127  128  129  130  131  132  133  134  135  136  137  138  139  140  141  142  143  144  145  146  147  148  149  150  151  152  153  154  155  156  157  158  159  160  161  162  163  164  165  166  167  168  169  170  171  172  173  174  175  176  177  178  179  180  181  182  183  184  185  186  187  188  189  
            </DataArray>
            <DataArray type="Float64" Name="ux" NumberOfComponents="1" format="ascii">
               0.0000000e+00    0.0000000e+00    0.0000000e+00   -1.2767269e-05    0.0000000e+00    0.0000000e+00   -2.5009462e-05    9.9377909e-18    0.0000000e+00   -1.2420314e-05   -3.6736154e-05   -1.2767269e-05    1.2767269e-05    0.0000000e+00    0.0000000e+00   -2.5068059e-05    1.9803915e-17    1.3255892e-19    0.0000000e+00   -4.7794896e-05   -2.5009462e-05    2.5009462e-05    2.8681039e-17   -3.6779562e-05    1.2420314e-05   -9.6559837e-18    2.9003778e-19   -5.8179256e-05    1.2767269e-05   -3.6736154e-05    3.6736154e-05    3.6779339e-17   -4.7833153e-05   -1.9232505e-17    2.5068059e-05    4.3218988e-19   -4.7794896e-05   -6.7894311e-05    2.5009462e-05    4.7794896e-05    4.4111762e-17   -5.8218269e-05    3.6779562e-05   -2.7806173e-17    5.8737692e-19    3.6736154e-05   -7.6939301e-05    5.8179256e-05   -5.8179256e-05    5.0679169e-17    4.7833153e-05   -3.5634799e-17   -6.7933317e-05    7.1563613e-19   -6.7894311e-05    6.7894311e-05   -8.5314306e-05    4.7794896e-05   -7.6978300e-05    5.6537140e-17    5.8218269e-05   -4.2677209e-17    8.4668698e-19   -7.6939301e-05   -9.3019305e-05    5.8179256e-05    7.6939301e-05    6.7933317e-05    6.1644815e-17   -8.5353306e-05   -4.8974545e-17    9.9864357e-19   -8.5314306e-05    6.7894311e-05   -1.0005431e-04    8.5314306e-05   -5.4537874e-17   -9.3058305e-05    7.6978300e-05    6.6059802e-17    1.1639903e-18    7.6939301e-05    9.3019305e-05   -9.3019305e-05   -1.0641931e-04   -1.0009330e-04   -5.9356529e-17    6.9808373e-17    8.5353306e-05    1.3060566e-18    1.0005431e-04   -1.1211431e-04    8.5314306e-05   -1.0005431e-04   -1.0645830e-04    7.2851755e-17   -6.3459675e-17    9.3058305e-05    1.4737269e-18    9.3019305e-05   -1.0641931e-04   -1.1713930e-04    1.0641931e-04   -1.1215331e-04   -6.6882436e-17    7.5331901e-17    1.0009330e-04    1.5633658e-18   -1.1211431e-04    1.0005431e-04   -1.2149430e-04    1.1211431e-04   -1.1717831e-04   -6.9762328e-17    7.7163629e-17    1.0645830e-04    1.5901731e-18   -1.1713930e-04   -1.2517930e-04    1.0641931e-04    1.1713930e-04    7.8552208e-17   -1.2153330e-04   -7.1936755e-17    1.1215331e-04    1.7591681e-18    1.1211431e-04    1.2149430e-04   -1.2149430e-04   -1.2819431e-04   -1.2521830e-04    7.9502089e-17    1.1717831e-04   -7.3618161e-17    1.8384670e-18   -1.2517930e-04   -1.3053925e-04    1.1713930e-04    1.2517930e-04   -1.2823330e-04   -7.4813477e-17    8.0012254e-17    1.2153330e-04    1.8201508e-18   -1.2819431e-04   -1.3221418e-04    1.2149430e-04    1.2819431e-04   -1.3057832e-04    8.0450137e-17   -7.5569302e-17    1.2521830e-04    2.0049195e-18   -1.3322188e-04   -1.3053925e-04    1.3053925e-04    1.2517930e-04   -7.6179020e-17    8.0506425e-17   -1.3225360e-04    1.2823330e-04    1.9594416e-18   -1.3356957e-04   -1.3221418e-04    1.3221418e-04    1.2819431e-04    8.0549511e-17   -7.6546381e-17   -1.3325407e-04    1.3057832e-04    1.9627557e-18    8.0530850e-17    1.3322188e-04   -1.3322188e-04   -1.3359418e-04    1.3053925e-04   -7.6623573e-17    1.3225360e-04    1.9517182e-18   -1.3356957e-04    1.3356957e-04    1.3221418e-04    1.9475254e-18    1.3325407e-04   -7.6767099e-17    1.3322188e-04    1.3359418e-04   -7.6746413e-17    1.3356957e-04
            </DataArray>
            <DataArray type="Float64" Name="fx" NumberOfComponents="1" format="ascii">
               2.5690676e+01    4.8618649e+01   -3.9571901e-11   -7.1054274e-15    2.5690676e+01   -2.5690676e+01    3.5527137e-15    4.4408921e-15   -1.3375967e-12    0.0000000e+00   -1.0658141e-14   -1.7763568e-14    7.1054274e-15    3.8093972e-11   -4.8618649e+01   -3.5527137e-15    8.8817842e-16   -7.1054274e-15   -2.5690676e+01    3.9079850e-14   -3.5527137e-14    2.1316282e-14    1.5099033e-14    1.3500312e-13    3.9079850e-14   -4.4408921e-15    1.0658141e-14   -2.4868996e-14    3.5527137e-15   -7.1054274e-15   -3.5527137e-15    3.0198066e-14    7.1054274e-15   -2.6645353e-15    3.5527137e-15    1.2434498e-14    1.7763568e-14    1.2079227e-13    4.9737992e-14   -7.1054274e-14    6.8389738e-14    5.6843419e-14    3.9079850e-14    1.9539925e-14    6.1284311e-14    1.4210855e-14    0.0000000e+00    5.6843419e-14   -2.8421709e-14   -7.7271523e-14   -4.9737992e-14   -3.6415315e-14   -8.8817842e-14    1.6697754e-13   -7.1054274e-15   -8.5265128e-14    4.9737992e-14   -1.0658141e-14    2.2026825e-13   -4.8849813e-14    8.8817842e-14   -2.5757174e-14   -2.3359092e-13    9.2370556e-14   -4.2632564e-14   -3.5527137e-15   -3.9079850e-14   -1.2079227e-13    4.4408921e-15    1.4033219e-13   -1.0391688e-13   -7.2830630e-14    1.0480505e-13   -7.4606987e-14    6.9277917e-14   -4.4408921e-14   -3.2862602e-14   -7.1054274e-15    1.8118840e-13    2.2204460e-14    5.7731597e-14   -1.7763568e-14   -3.5527137e-14    1.7763568e-15    7.4606987e-14    3.2862602e-13   -5.3290705e-14    2.1493918e-13   -7.4606987e-14    2.5091040e-13    5.1514348e-14   -2.1316282e-14    5.5067062e-14    8.8817842e-14   -3.1086245e-13    1.2168044e-13   -7.9936058e-15   -1.2434498e-13    5.1825211e-13   -1.3145041e-13   -2.5401903e-13    1.7053026e-13    2.9309888e-13    3.6770587e-13    2.8155256e-13    5.5511151e-13    1.7763568e-14    3.3306691e-14   -1.6697754e-13    3.0198066e-14    1.6520119e-13    1.2612134e-13   -1.5276669e-13   -2.7267077e-13   -1.9806379e-13    3.5527137e-14   -3.0997427e-13   -1.5987212e-14    5.2935434e-13   -1.7585933e-13    7.1054274e-15    1.1568524e-13   -1.7497115e-13    3.0020431e-13   -5.5067062e-14   -6.9633188e-13    2.3803182e-13    2.0516921e-13   -6.6613381e-14   -2.2115643e-13    1.3988810e-12    2.6112446e-13    4.3165471e-13    1.9495516e-13   -8.7707619e-14   -1.2256862e-13    6.5103478e-13    2.6290081e-13   -2.2382096e-13   -8.5709218e-13    1.9317881e-13   -4.3731685e-13    6.0840222e-13   -1.1746160e-12    3.5882408e-13    5.2402527e-13   -7.1942452e-14    2.8155256e-13    1.2221335e-12    8.7874152e-13    3.9568349e-13   -7.4074080e-13    8.1123996e-13   -2.7511327e-13   -5.4178884e-14    3.9035442e-13   -4.4675375e-13    3.4194869e-13   -1.7688281e-13    6.1683991e-13    8.5176310e-13    2.3808733e-13   -1.6127377e-13    5.4223293e-13   -1.5010215e-13    2.0428104e-13   -1.8529622e-13   -1.9806379e-13   -1.1015633e-12   -2.2026825e-13    7.8486523e-13   -1.8773871e-13   -1.9828583e-13    1.2656542e-14   -3.5840081e-13    2.8377301e-13    6.9348347e-13   -8.0513374e-13   -2.3148150e-14    1.8215984e-13    8.7749252e-14   -9.3258734e-15   -1.0924595e-13   -1.1917134e-12   -9.0594199e-13    2.6423308e-13    2.6316449e-13   -1.4055423e-13    4.0578652e-14
            </DataArray>
            <DataArray type="Float64" Name="uy" NumberOfComponents="1" format="ascii">
               0.0000000e+00    0.0000000e+00    0.0000000e+00   -2.5348884e-06    0.0000000e+00    0.0000000e+00   -2.3596472e-06    6.7505618e-18    0.0000000e+00    2.6717518e-18   -2.2080046e-06    2.5348884e-06    2.5348884e-06    0.0000000e+00    0.0000000e+00    1.6322786e-17    2.1994984e-17    5.4901189e-18    0.0000000e+00   -2.0798045e-06    2.3596472e-06    2.3596472e-06    4.6490727e-17    3.8973991e-17    6.5509193e-18    6.6900850e-18    2.1079078e-17   -1.9500642e-06   -2.5348884e-06    2.2080046e-06    2.2080046e-06    7.9301309e-17    7.0020945e-17    2.1933352e-17    2.4078827e-17    4.5613508e-17    2.0798045e-06   -1.8199935e-06   -2.3596472e-06    2.0798045e-06    1.1969161e-16    1.0859766e-16    5.0625144e-17    4.6429333e-17    7.8513013e-17   -2.2080046e-06   -1.6900003e-06    1.9500642e-06    1.9500642e-06    1.6687605e-16    8.5524473e-17    7.9242361e-17    1.5404488e-16    1.1897389e-16    1.8199935e-06    1.8199935e-06   -1.5599999e-06   -2.0798045e-06    2.0559533e-16    2.2009221e-16    1.2799262e-16    1.1960899e-16    1.6623388e-16    1.6900003e-06   -1.4300000e-06   -1.9500642e-06    1.6900003e-06    1.7720649e-16    2.7860857e-16    2.6252097e-16    1.6682712e-16    2.1956268e-16    1.5599999e-06   -1.8199935e-06   -1.3000000e-06    1.5599999e-06    2.2008666e-16    3.2408383e-16    2.3245276e-16    3.4178899e-16    2.7816334e-16   -1.6900003e-06    1.4300000e-06    1.4300000e-06   -1.1700000e-06    3.8968000e-16    2.7860671e-16    4.0885672e-16    2.9298809e-16    3.4134626e-16    1.3000000e-06   -1.0400000e-06   -1.5599999e-06    1.3000000e-06    4.5841370e-16    4.7929169e-16    3.4171257e-16    3.5788884e-16    4.0853214e-16   -1.4300000e-06    1.1700000e-06   -9.0999998e-07    1.1700000e-06    5.2979788e-16    4.0882437e-16    5.5218575e-16    4.2669872e-16    4.7889448e-16    1.0400000e-06   -1.3000000e-06   -7.8000011e-07    1.0400000e-06    6.0305702e-16    4.7908305e-16    6.2701815e-16    4.9885201e-16    5.5196664e-16    9.0999998e-07   -6.4999892e-07   -1.1700000e-06    9.0999998e-07    7.0336790e-16    6.7780498e-16    5.5217930e-16    5.7369234e-16    6.2690581e-16   -1.0400000e-06    7.8000011e-07    7.8000011e-07   -5.2000263e-07    7.5316592e-16    7.8081535e-16    6.5022431e-16    6.2699788e-16    7.0325599e-16    6.4999892e-07   -3.9004127e-07   -9.0999998e-07    6.4999892e-07    8.2942229e-16    7.0335509e-16    8.5877796e-16    7.2852256e-16    7.8056749e-16    5.2000263e-07   -2.5965389e-07   -7.8000011e-07    5.2000263e-07    9.0591974e-16    9.3719060e-16    7.8047707e-16    8.0790670e-16    8.5873566e-16   -1.2837177e-07    3.9004127e-07    3.9004127e-07   -6.4999892e-07    8.5876843e-16    1.0158562e-15    9.8245446e-16    8.8799033e-16    9.3718711e-16   -5.3539978e-08    2.5965389e-07    2.5965389e-07   -5.2000263e-07    1.0946703e-15    9.3720077e-16    1.0596368e-15    9.6851494e-16    1.0157871e-15    1.1731525e-15    1.2837177e-07    1.2837177e-07    1.1377847e-15   -3.9004127e-07    1.0157100e-15    1.0492466e-15    1.0945425e-15    5.3539978e-08    5.3539978e-08   -2.5965389e-07    1.1731678e-15    1.1294151e-15    1.0944138e-15   -1.2837177e-07    1.2084868e-15    1.1730680e-15   -5.3539978e-08
            </DataArray>
            <DataArray type="Float64" Name="fy" NumberOfComponents="1" format="ascii">