<?xml version="1.0"?>
<VTKFile type="UnstructuredGrid" version="0.1" byte_order="LittleEndian">
   <UnstructuredGrid>
      <Piece NumberOfPoints="189" NumberOfCells="80">
         <Points>
            <DataArray type="Float64" NumberOfComponents="3" format="ascii">
               0.0000000e+00     0.0000000e+00     0.0000000e+00
               0.0000000e+00     5.0000000e-02     0.0000000e+00
               0.0000000e+00     0.0000000e+00     5.0000000e-02
               5.0000000e-02     0.0000000e+00     0.0000000e+00
               0.0000000e+00     1.0000000e-01     0.0000000e+00
               0.0000000e+00     0.0000000e+00     1.0000000e-01
               1.0000000e-01     0.0000000e+00     0.0000000e+00
               5.0000000e-02     0.0000000e+00     5.0000000e-02
               0.0000000e+00     5.0000000e-02     5.0000000e-02
               5.0000000e-02     5.0000000e-02     0.0000000e+00
               1.5000000e-01     0.0000000e+00     0.0000000e+00
               5.0000000e-02     1.0000000e-01     0.0000000e+00
               5.0000000e-02     0.0000000e+00     1.0000000e-01
               0.0000000e+00     1.0000000e-01     5.0000000e-02
               0.0000000e+00     5.0000000e-02     1.0000000e-01
               1.0000000e-01     5.0000000e-02     0.0000000e+00
               1.0000000e-01     0.0000000e+00     5.0000000e-02
               5.0000000e-02     5.0000000e-02     5.0000000e-02
               0.0000000e+00     1.0000000e-01     1.0000000e-01
               2.0000000e-01     0.0000000e+00     0.0000000e+00
               1.0000000e-01     1.0000000e-01     0.0000000e+00
               1.0000000e-01     0.0000000e+00     1.0000000e-01
               1.5000000e-01     0.0000000e+00     5.0000000e-02
               1.5000000e-01     5.0000000e-02     0.0000000e+00
               5.0000000e-02     5.0000000e-02     1.0000000e-01
               5.0000000e-02     1.0000000e-01     5.0000000e-02
               1.0000000e-01     5.0000000e-02     5.0000000e-02
               2.5000000e-01     0.0000000e+00     0.0000000e+00
               5.0000000e-02     1.0000000e-01     1.0000000e-01
               1.5000000e-01     1.0000000e-01     0.0000000e+00
               1.5000000e-01     0.0000000e+00     1.0000000e-01
               2.0000000e-01     0.0000000e+00     5.0000000e-02
               2.0000000e-01     5.0000000e-02     0.0000000e+00
               1.0000000e-01     1.0000000e-01     5.0000000e-02
               1.0000000e-01     5.0000000e-02     1.0000000e-01
               1.5000000e-01     5.0000000e-02     5.0000000e-02
               2.0000000e-01     1.0000000e-01     0.0000000e+00
               3.0000000e-01     0.0000000e+00     0.0000000e+00
               1.0000000e-01     1.0000000e-01     1.0000000e-01
               2.0000000e-01     0.0000000e+00     1.0000000e-01
               2.5000000e-01     0.0000000e+00     5.0000000e-02
               2.5000000e-01     5.0000000e-02     0.0000000e+00
               1.5000000e-01     5.0000000e-02     1.0000000e-01
               1.5000000e-01     1.0000000e-01     5.0000000e-02
               2.0000000e-01     5.0000000e-02     5.0000000e-02
               1.5000000e-01     1.0000000e-01     1.0000000e-01
               3.5000000e-01     0.0000000e+00     0.0000000e+00
               2.5000000e-01     0.0000000e+00     1.0000000e-01
               2.5000000e-01     1.0000000e-01     0.0000000e+00
               3.0000000e-01     0.0000000e+00     5.0000000e-02
               2.0000000e-01     5.0000000e-02     1.0000000e-01
               2.0000000e-01     1.0000000e-01     5.0000000e-02
               3.0000000e-01     5.0000000e-02     0.0000000e+00
               2.5000000e-01     5.0000000e-02     5.0000000e-02
               3.0000000e-01     1.0000000e-01     0.0000000e+00
               3.0000000e-01     0.0000000e+00     1.0000000e-01
               4.0000000e-01     0.0000000e+00     0.0000000e+00
               2.0000000e-01     1.0000000e-01     1.0000000e-01
               3.5000000e-01     5.0000000e-02     0.0000000e+00
               3.5000000e-01     0.0000000e+00     5.0000000e-02
               2.5000000e-01     5.0000000e-02     1.0000000e-01
               2.5000000e-01     1.0000000e-01     5.0000000e-02
               3.0000000e-01     5.0000000e-02     5.0000000e-02
               3.5000000e-01     1.0000000e-01     0.0000000e+00
               4.5000000e-01     0.0000000e+00     0.0000000e+00
               2.5000000e-01     1.0000000e-01     1.0000000e-01
               3.5000000e-01     0.0000000e+00     1.0000000e-01
               3.0000000e-01     5.0000000e-02     1.0000000e-01
               4.0000000e-01     0.0000000e+00     5.0000000e-02
               4.0000000e-01     5.0000000e-02     0.0000000e+00
               3.0000000e-01     1.0000000e-01     5.0000000e-02
               3.5000000e-01     5.0000000e-02     5.0000000e-02
               4.0000000e-01     1.0000000e-01     0.0000000e+00
               3.0000000e-01     1.0000000e-01     1.0000000e-01
               5.0000000e-01     0.0000000e+00     0.0000000e+00
               4.0000000e-01     0.0000000e+00     1.0000000e-01
               3.5000000e-01     1.0000000e-01     5.0000000e-02
               4.5000000e-01     5.0000000e-02     0.0000000e+00
               3.5000000e-01     5.0000000e-02     1.0000000e-01
               4.5000000e-01     0.0000000e+00     5.0000000e-02
               4.0000000e-01     5.0000000e-02     5.0000000e-02
               3.5000000e-01     1.0000000e-01     1.0000000e-01
               4.5000000e-01     0.0000000e+00     1.0000000e-01
               4.5000000e-01     1.0000000e-01     0.0000000e+00
               5.5000000e-01     0.0000000e+00     0.0000000e+00
               5.0000000e-01     5.0000000e-02     0.0000000e+00
               4.0000000e-01     1.0000000e-01     5.0000000e-02
               5.0000000e-01     0.0000000e+00     5.0000000e-02
               4.0000000e-01     5.0000000e-02     1.0000000e-01
               4.5000000e-01     5.0000000e-02     5.0000000e-02
               5.0000000e-01     0.0000000e+00     1.0000000e-01
               6.0000000e-01     0.0000000e+00     0.0000000e+00
               4.0000000e-01     1.0000000e-01     1.0000000e-01
               5.0000000e-01     1.0000000e-01     0.0000000e+00
               5.5000000e-01     5.0000000e-02     0.0000000e+00
               5.5000000e-01     0.0000000e+00     5.0000000e-02
               4.5000000e-01     1.0000000e-01     5.0000000e-02
               4.5000000e-01     5.0000000e-02     1.0000000e-01
               5.0000000e-01     5.0000000e-02     5.0000000e-02
               4.5000000e-01     1.0000000e-01     1.0000000e-01
               5.5000000e-01     1.0000000e-01     0.0000000e+00
               6.5000000e-01     0.0000000e+00     0.0000000e+00
               5.5000000e-01     0.0000000e+00     1.0000000e-01
               6.0000000e-01     5.0000000e-02     0.0000000e+00
               5.0000000e-01     1.0000000e-01     5.0000000e-02
               6.0000000e-01     0.0000000e+00     5.0000000e-02
               5.0000000e-01     5.0000000e-02     1.0000000e-01
               5.5000000e-01     5.0000000e-02     5.0000000e-02
               6.0000000e-01     1.0000000e-01     0.0000000e+00
               5.0000000e-01     1.0000000e-01     1.0000000e-01
               7.0000000e-01     0.0000000e+00     0.0000000e+00
               6.0000000e-01     0.0000000e+00     1.0000000e-01
               6.5000000e-01     5.0000000e-02     0.0000000e+00
               5.5000000e-01     1.0000000e-01     5.0000000e-02
               6.5000000e-01     0.0000000e+00     5.0000000e-02
               5.5000000e-01     5.0000000e-02     1.0000000e-01
               6.0000000e-01     5.0000000e-02     5.0000000e-02
               6.5000000e-01     1.0000000e-01     0.0000000e+00
               7.5000000e-01     0.0000000e+00     0.0000000e+00
               5.5000000e-01     1.0000000e-01     1.0000000e-01
               6.5000000e-01     0.0000000e+00     1.0000000e-01
               7.0000000e-01     0.0000000e+00     5.0000000e-02
               7.0000000e-01     5.0000000e-02     0.0000000e+00
               6.0000000e-01     1.0000000e-01     5.0000000e-02
               6.0000000e-01     5.0000000e-02     1.0000000e-01
               6.5000000e-01     5.0000000e-02     5.0000000e-02
               6.0000000e-01     1.0000000e-01     1.0000000e-01
               7.0000000e-01     0.0000000e+00     1.0000000e-01
               7.0000000e-01     1.0000000e-01     0.0000000e+00
               8.0000000e-01     0.0000000e+00     0.0000000e+00
               7.5000000e-01     5.0000000e-02     0.0000000e+00
               7.5000000e-01     0.0000000e+00     5.0000000e-02
               6.5000000e-01     5.0000000e-02     1.0000000e-01
               6.5000000e-01     1.0000000e-01     5.0000000e-02
               7.0000000e-01     5.0000000e-02     5.0000000e-02
               7.5000000e-01     1.0000000e-01     0.0000000e+00
               8.5000000e-01     0.0000000e+00     0.0000000e+00
               6.5000000e-01     1.0000000e-01     1.0000000e-01
               7.5000000e-01     0.0000000e+00     1.0000000e-01
               8.0000000e-01     5.0000000e-02     0.0000000e+00
               7.0000000e-01     1.0000000e-01     5.0000000e-02
               8.0000000e-01     0.0000000e+00     5.0000000e-02
               7.0000000e-01     5.0000000e-02     1.0000000e-01
               7.5000000e-01     5.0000000e-02     5.0000000e-02
               8.0000000e-01     1.0000000e-01     0.0000000e+00
               9.0000000e-01     0.0000000e+00     0.0000000e+00
               7.0000000e-01     1.0000000e-01     1.0000000e-01
               8.0000000e-01     0.0000000e+00     1.0000000e-01
               8.5000000e-01     5.0000000e-02     0.0000000e+00
               8.5000000e-01     0.0000000e+00     5.0000000e-02
               7.5000000e-01     1.0000000e-01     5.0000000e-02
               7.5000000e-01     5.0000000e-02     1.0000000e-01
               8.0000000e-01     5.0000000e-02     5.0000000e-02
               9.5000000e-01     0.0000000e+00     0.0000000e+00
               8.5000000e-01     1.0000000e-01     0.0000000e+00
               8.5000000e-01     0.0000000e+00     1.0000000e-01
               7.5000000e-01     1.0000000e-01     1.0000000e-01
               8.0000000e-01     1.0000000e-01     5.0000000e-02
               9.0000000e-01     0.0000000e+00     5.0000000e-02
               9.0000000e-01     5.0000000e-02     0.0000000e+00
               8.0000000e-01     5.0000000e-02     1.0000000e-01
               8.5000000e-01     5.0000000e-02     5.0000000e-02
               1.0000000e+00     0.0000000e+00     0.0000000e+00
               9.0000000e-01     1.0000000e-01     0.0000000e+00
               9.0000000e-01     0.0000000e+00     1.0000000e-01
               8.0000000e-01     1.0000000e-01     1.0000000e-01
               9.5000000e-01     0.0000000e+00     5.0000000e-02
               8.5000000e-01     1.0000000e-01     5.0000000e-02
               9.5000000e-01     5.0000000e-02     0.0000000e+00
               8.5000000e-01     5.0000000e-02     1.0000000e-01
               9.0000000e-01     5.0000000e-02     5.0000000e-02
               1.0000000e+00     0.0000000e+00     5.0000000e-02
               9.5000000e-01     0.0000000e+00     1.0000000e-01
               9.5000000e-01     1.0000000e-01     0.0000000e+00
               1.0000000e+00     5.0000000e-02     0.0000000e+00
               8.5000000e-01     1.0000000e-01     1.0000000e-01
               9.0000000e-01     1.0000000e-01     5.0000000e-02
               9.0000000e-01     5.0000000e-02     1.0000000e-01
               9.5000000e-01     5.0000000e-02     5.0000000e-02
               1.0000000e+00     1.0000000e-01     0.0000000e+00
               1.0000000e+00     0.0000000e+00     1.0000000e-01
               9.0000000e-01     1.0000000e-01     1.0000000e-01
               1.0000000e+00     5.0000000e-02     5.0000000e-02
               9.5000000e-01     5.0000000e-02     1.0000000e-01
               9.5000000e-01     1.0000000e-01     5.0000000e-02
               9.5000000e-01     1.0000000e-01     1.0000000e-01
               1.0000000e+00     5.0000000e-02     1.0000000e-01
               1.0000000e+00     1.0000000e-01     5.0000000e-02
               1.0000000e+00     1.0000000e-01     1.0000000e-01
            </DataArray>
         </Points>
         <Cells>
            <DataArray type="Int32" Name="connectivity" format="ascii">
               0  3  9  1  2  7  17  8  3  6  15  9  7  16  26  17  6  10  23  15  16  22  35  26  10  19  32  23  22  31  44  35  19  27  41  32  31  40  53  44  27  37  52  41  40  49  62  53  37  46  58  52  49  59  71  62  46  56  69  58  59  68  80  71  56  64  77  69  68  79  89  80  64  74  85  77  79  87  98  89  74  84  94  85  87  95  107  98  84  91  103  94  95  105  116  107  91  101  112  103  105  114  125  116  101  110  122  112  114  121  134  125  110  118  130  122  121  131  143  134  118  129  139  130  131  141  152  143  129  136  148  139  141  149  161  152  136  145  159  148  149  158  170  161  145  153  168  159  158  166  178  170  153  162  174  168  166  171  182  178  1  9  11  4  8  17  25  13  9  15  20  11  17  26  33  25  15  23  29  20  26  35  43  33  23  32  36  29  35  44  51  43  32  41  48  36  44  53  61  51  41  52  54  48  53  62  70  61  52  58  63  54  62  71  76  70  58  69  72  63  71  80  86  76  69  77  83  72  80  89  96  86  77  85  93  83  89  98  104  96  85  94  100  93  98  107  113  104  94  103  108  100  107  116  123  113  103  112  117  108  116  125  133  123  112  122  128  117  125  134  140  133  122  130  135  128  134  143  150  140  130  139  144  135  143  152  157  150  139  148  154  144  152  161  167  157  148  159  163  154  161  170  176  167  159  168  173  163  170  178  184  176  168  174  179  173  178  182  187  184  2  7  17  8  5  12  24  14  7  16  26  17  12  21  34  24  16  22  35  26  21  30  42  34  22  31  44  35  30  39  50  42  31  40  53  44  39  47  60  50  40  49  62  53  47  55  67  60  49  59  71  62  55  66  78  67  59  68  80  71  66  75  88  78  68  79  89  80  75  82  97  88  79  87  98  89  82  90  106  97  87  95  107  98  90  102  115  106  95  105  116  107  102  111  124  115  105  114  125  116  111  120  132  124  114  121  134  125  120  127  142  132  121  131  143  134  127  138  151  142  131  141  152  143  138  147  160  151  141  149  161  152  147  155  169  160  149  158  170  161  155  164  177  169  158  166  178  170  164  172  183  177  166  171  182  178  172  180  186  183  8  17  25  13  14  24  28  18  17  26  33  25  24  34  38  28  26  35  43  33  34  42  45  38  35  44  51  43  42  50  57  45  44  53  61  51  50  60  65  57  53  62  70  61  60  67  73  65  62  71  76  70  67  78  81  73  71  80  86  76  78  88  92  81  80  89  96  86  88  97  99  92  89  98  104  96  97  106  109  99  98  107  113  104  106  115  119  109  107  116  123  113  115  124  126  119  116  125  133  123  124  132  137  126  125  134  140  133  132  142  146  137  134  143  150  140  142  151  156  146  143  152  157  150  151  160  165  156  152  161  167  157  160  169  175  165  161  170  176  167  169  177  181  175  170  178  184  176  177  183  185  181  178  182  187  184  183  186  188  185  
            </DataArray>
            <DataArray type="Int32" Name="offsets" format="ascii">
               8  16  24  32  40  48  56  64  72  80  88  96  104  112  120  128  136  144  152  160  168  176  184  192  200  208  216  224  232  240  248  256  264  272  280  288  296  304  312  320  328  336  344  352  360  368  376  384  392  400  408  416  424  432  440  448  456  464  472  480  488  496  504  512  520  528  536  544  552  560  568  576  584  592  600  608  616  624  632  640  
            </DataArray>
            <DataArray type="Int32" Name="types" format="ascii">
               12  12  12  12  12  12  12  12  12  12  12  12  12  12  12  12  12  12  12  12  12  12  12  12  12  12  12  12  12  12  12  12  12  12  12  12  12  12  12  12  12  12  12  12  12  12  12  12  12  12  12  12  12  12  12  12  12  12  12  12  12  12  12  12  12  12  12  12  12  12  12  12  12  12  12  12  12  12  12  12  
            </DataArray>
         </Cells>
         <PointData>
            <DataArray type="Int32" Name="node-id" NumberOfComponents="1" format="ascii">
               1  2  3  4  5  6  7  8  9  10  11  12  13  14  15  16  17  18  19  20  21  22  23  24  25  26  27  28  29  30  31  32  33  34  35  36  37  38  39  40  41  42  43  44  45  46  47  48  49  50  51  52  53  54  55  56  57  58  59  60  61  62  63  64  65  66  67  68  69  70  71  72  73  74  75  76  77  78  79  80  81  82  83  84  85  86  87  88  89  90  91  92  93  94  95  96  97  98  99  100  101  102  103  104  105  106  107  108  109  110  111  112  113  114  115  116  117  118  119  120  121  122  123  124  125  126  127  128  129  130  131  132  133  134  135  136  137  138  139  140  141  142  143  144  145  146  147  148  149  150  151  152  153  154  155  156  157  158  159  160  161  162  163  164  165  166  167  168  169  170  171  172  173  174  175  176  177  178  179  180  181  182  183  184  185  186  187  188  189  
            </DataArray>
            <DataArray type="Float64" Name="ux" NumberOfComponents="1" format="ascii">
               0.0000000e+00    0.0000000e+00    0.0000000e+00   -1.2767269e-05    0.0000000e+00    0.0000000e+00   -2.5009462e-05   -4.1194997e-18    0.0000000e+00   -1.2420314e-05   -3.6736154e-05   -1.2767269e-05    1.2767269e-05    0.0000000e+00    0.0000000e+00   -2.5068059e-05   -8.5413884e-18   -5.7233415e-20    0.0000000e+00   -4.7794896e-05   -2.5009462e-05    2.5009462e-05   -1.2872169e-17   -3.6779562e-05    1.2420314e-05    4.0017356e-18   -1.1871368e-19   -5.8179256e-05    1.2767269e-05   -3.6736154e-05    3.6736154e-05   -1.7215036e-17   -4.7833153e-05    8.2947744e-18    2.5068059e-05   -1.8298891e-19   -4.7794896e-05   -6.7894311e-05    2.5009462e-05    4.7794896e-05   -2.1542308e-17   -5.8218269e-05    3.6779562e-05    1.2511216e-17   -2.4242203e-19    3.6736154e-05   -7.6939301e-05    5.8179256e-05   -5.8179256e-05   -2.5862110e-17    4.7833153e-05    1.6721435e-17   -6.7933317e-05   -3.1780561e-19   -6.7894311e-05    6.7894311e-05   -8.5314306e-05    4.7794896e-05   -7.6978300e-05   -3.0121676e-17    5.8218269e-05    2.0927875e-17   -3.5989119e-19   -7.6939301e-05   -9.3019305e-05    5.8179256e-05    7.6939301e-05    6.7933317e-05   -3.4278940e-17   -8.5353306e-05    2.5107809e-17   -4.4498527e-19   -8.5314306e-05    6.7894311e-05   -1.0005431e-04    8.5314306e-05    2.9231934e-17   -9.3058305e-05    7.6978300e-05   -3.8268820e-17   -4.9968440e-19    7.6939301e-05    9.3019305e-05   -9.3019305e-05   -1.0641931e-04   -1.0009330e-04    3.3269482e-17   -4.2058716e-17    8.5353306e-05   -5.7933068e-19    1.0005431e-04   -1.1211431e-04    8.5314306e-05   -1.0005431e-04   -1.0645830e-04   -4.5584842e-17    3.7178834e-17    9.3058305e-05   -6.1384039e-19    9.3019305e-05   -1.0641931e-04   -1.1713930e-04    1.0641931e-04   -1.1215331e-04    4.0932014e-17   -4.8733127e-17    1.0009330e-04   -6.2926659e-19   -1.1211431e-04    1.0005431e-04   -1.2149430e-04    1.1211431e-04   -1.1717831e-04    4.4335710e-17   -5.1635883e-17    1.0645830e-04   -6.9020441e-19   -1.1713930e-04   -1.2517930e-04    1.0641931e-04    1.1713930e-04   -5.4117220e-17   -1.2153330e-04    4.7494805e-17    1.1215331e-04   -6.5234674e-19    1.1211431e-04    1.2149430e-04   -1.2149430e-04   -1.2819431e-04   -1.2521830e-04   -5.6089999e-17    1.1717831e-04    5.0229927e-17   -7.1495552e-19   -1.2517930e-04   -1.3053925e-04    1.1713930e-04    1.2517930e-04   -1.2823330e-04    5.2700736e-17   -5.7675559e-17    1.2153330e-04   -7.8712512e-19   -1.2819431e-04   -1.3221418e-04    1.2149430e-04    1.2819431e-04   -1.3057832e-04   -5.8676831e-17    5.4699439e-17    1.2521830e-04   -8.3782384e-19   -1.3322188e-04   -1.3053925e-04    1.3053925e-04    1.2517930e-04    5.6148067e-17   -5.9366263e-17   -1.3225360e-04    1.2823330e-04   -7.7743102e-19   -1.3356957e-04   -1.3221418e-04    1.3221418e-04    1.2819431e-04   -5.9785405e-17    5.6989025e-17   -1.3325407e-04    1.3057832e-04   -8.9584715e-19   -5.9864285e-17    1.3322188e-04   -1.3322188e-04   -1.3359418e-04    1.3053925e-04    5.7444947e-17    1.3225360e-04   -1.1616426e-18   -1.3356957e-04    1.3356957e-04    1.3221418e-04   -1.2559024e-18    1.3325407e-04    5.7649062e-17    1.3322188e-04    1.3359418e-04    5.7514603e-17    1.3356957e-04
            </DataArray>
            <DataArray type="Float64" Name="fx" NumberOfComponents="1" format="ascii">
               2.5690676e+01    4.8618649e+01    1.5768720e-11   -1.7763568e-14    2.5690676e+01   -2.5690676e+01   -1.0658141e-14   -2.6645353e-15    5.6843419e-13    0.0000000e+00   -6.0396133e-14   -3.5527137e-15    0.0000000e+00   -1.5150547e-11   -4.8618649e+01   -7.8159701e-14   -1.5987212e-14   -4.4408921e-15   -2.5690676e+01   -1.4210855e-14    0.0000000e+00    1.0658141e-14    3.4638958e-14    6.3948846e-14    1.0658141e-14    8.8817842e-15    2.0428104e-14   -3.5527137e-14   -3.5527137e-15    2.4868996e-14    4.6185278e-14    2.1316282e-14   -6.3948846e-14    1.2434498e-14    3.1974423e-14    7.9936058e-15    4.9737992e-14    1.5276669e-13    3.9079850e-14   -2.1316282e-14    2.2204460e-14    5.3290705e-14    7.1054274e-15    7.1054274e-15    0.0000000e+00   -1.0658141e-14   -5.3290705e-14    6.3948846e-14    4.2632564e-14    9.2370556e-14   -7.1054274e-15    4.4408921e-15    4.2632564e-14   -1.7763568e-14    7.1054274e-15    2.8421709e-14   -2.2382096e-13   -1.4210855e-14   -1.5276669e-13   -7.9936058e-14    8.5265128e-14   -3.4638958e-14    2.0961011e-13    3.5527137e-15   -3.5527137e-14   -3.5527137e-15   -9.5923269e-14   -1.0658141e-14   -6.3948846e-14   -7.1054274e-14   -5.3290705e-15   -1.7585933e-13    1.5099033e-13    5.6843419e-14   -1.2612134e-13    3.0198066e-14   -7.3718809e-14   -5.0448534e-13    1.3500312e-13   -1.0524914e-13    1.4299673e-13    6.3948846e-14   -3.4994230e-13   -2.7000624e-13   -6.2172489e-14   -1.7763568e-13    1.8385293e-13    2.3714364e-13   -1.9717561e-13   -4.2765791e-13    6.9277917e-14    1.7763568e-13   -2.8421709e-14   -1.9539925e-14    5.2047255e-13    9.1038288e-14   -3.8635761e-14   -1.8474111e-13   -3.9213077e-13    1.1901591e-13    2.6645353e-14    3.2684966e-13   -2.8421709e-14   -3.0198066e-14    1.2612134e-13    3.3306691e-13    1.4921397e-13   -1.3322676e-14   -1.4210855e-14    1.7763568e-15    2.9309888e-14    3.2684966e-13   -1.2452261e-12    7.1942452e-14   -4.9693583e-13   -3.3217873e-13   -6.6879835e-13   -1.2434498e-14    3.1707970e-13   -3.1974423e-14   -4.2632564e-14   -2.9976022e-14    9.8321351e-13    1.3411494e-13    1.2256862e-13   -3.3928416e-13   -4.0856207e-14    2.4247271e-13   -4.5297099e-14   -8.8817842e-14    7.8870244e-13    5.2069460e-13    5.5067062e-14   -2.6112446e-13    3.7125858e-13   -1.5809576e-13   -1.9229063e-13   -7.9936058e-14   -2.3447910e-13   -5.4001248e-13    5.0626170e-14   -1.7708057e-13    4.3254289e-13   -1.7363888e-13    4.1744386e-14    1.7941204e-13   -7.2830630e-14   -1.9539925e-14   -5.3290705e-14   -6.1783911e-14    4.3542947e-13   -1.4210855e-14   -8.1712415e-13    8.1046281e-14    1.1546319e-14    1.2523316e-13   -5.6843419e-14    4.3220982e-13    1.0628651e-14   -8.7929664e-14   -1.0276224e-12    8.8007379e-13   -3.2582964e-13    5.1558757e-13   -3.4949821e-13    7.8159701e-14   -4.0528692e-13    7.7204909e-13   -2.9776182e-13    8.1934459e-13    5.7492205e-13   -7.1398443e-13   -2.2648550e-14   -4.3676174e-13    3.8795356e-14    3.9257486e-13    1.1796467e-13    3.5793590e-13   -1.1841639e-12   -2.2232216e-14   -9.9947828e-14    6.6169292e-14   -9.8299147e-13   -7.3407946e-13    4.0439874e-13    6.9277917e-14   -4.3046122e-13    2.7333691e-13    1.0852430e-13
            </DataArray>
            <DataArray type="Float64" Name="uy" NumberOfComponents="1" format="ascii">
               0.0000000e+00    0.0000000e+00    0.0000000e+00   -2.5348884e-06    0.0000000e+00    0.0000000e+00   -2.3596472e-06   -2.5180313e-18    0.0000000e+00   -2.7144414e-18   -2.2080046e-06    2.5348884e-06    2.5348884e-06    0.0000000e+00    0.0000000e+00   -1.0131192e-17   -8.7472191e-18   -1.9815633e-18    0.0000000e+00   -2.0798045e-06    2.3596472e-06    2.3596472e-06   -1.9303150e-17   -2.1796500e-17   -4.8597119e-19   -2.4914986e-18   -8.3139038e-18   -1.9500642e-06   -2.5348884e-06    2.2080046e-06    2.2080046e-06   -3.4123715e-17   -3.7746601e-17   -8.7166556e-18   -5.6703587e-18   -1.8857274e-17    2.0798045e-06   -1.8199935e-06   -2.3596472e-06    2.0798045e-06   -5.3254784e-17   -5.8020195e-17   -1.5087523e-17   -1.9279446e-17   -3.3698273e-17   -2.2080046e-06   -1.6900003e-06    1.9500642e-06    1.9500642e-06   -7.6634737e-17   -2.8806588e-17   -3.4115175e-17   -8.2569103e-17   -5.2806059e-17    1.8199935e-06    1.8199935e-06   -1.5599999e-06   -2.0798045e-06   -1.1134134e-16   -1.0428639e-16   -4.6799176e-17   -5.3223706e-17   -7.6196106e-17    1.6900003e-06   -1.4300000e-06   -1.9500642e-06    1.6900003e-06   -6.9038572e-17   -1.3608300e-16   -1.4431213e-16   -7.6614441e-17   -1.0383794e-16    1.5599999e-06   -1.8199935e-06   -1.3000000e-06    1.5599999e-06   -1.0422817e-16   -1.8142640e-16   -9.5543708e-17   -1.7200301e-16   -1.3566350e-16   -1.6900003e-06    1.4300000e-06    1.4300000e-06   -1.1700000e-06   -2.2221364e-16   -1.3605705e-16   -2.1167723e-16   -1.2623434e-16   -1.7160169e-16    1.3000000e-06   -1.0400000e-06   -1.5599999e-06    1.3000000e-06   -2.6655796e-16   -2.5514271e-16   -1.7195482e-16   -1.6091531e-16   -2.1132685e-16   -1.4300000e-06    1.1700000e-06   -9.0999998e-07    1.1700000e-06   -3.1433811e-16   -2.1176843e-16   -3.0192309e-16   -1.9975565e-16   -2.5489098e-16    1.0400000e-06   -1.3000000e-06   -7.8000011e-07    1.0400000e-06   -3.6487260e-16   -2.5521844e-16   -3.5171005e-16   -2.4245288e-16   -3.0168230e-16    9.0999998e-07   -6.4999892e-07   -1.1700000e-06    9.0999998e-07   -4.0428030e-16   -4.1834534e-16   -3.0202349e-16   -2.8841120e-16   -3.5154567e-16   -1.0400000e-06    7.8000011e-07    7.8000011e-07   -5.2000263e-07   -4.7412309e-16   -4.5898222e-16   -3.3761532e-16   -3.5191019e-16   -4.0406052e-16    6.4999892e-07   -3.9004127e-07   -9.0999998e-07    6.4999892e-07   -5.3109252e-16   -4.0428949e-16   -5.1550092e-16   -3.8935939e-16   -4.5883139e-16    5.2000263e-07   -2.5965389e-07   -7.8000011e-07    5.2000263e-07   -5.8950560e-16   -5.7334781e-16   -4.5909440e-16   -4.4337286e-16   -5.1550346e-16   -1.2837177e-07    3.9004127e-07    3.9004127e-07   -6.4999892e-07   -5.1556540e-16   -6.3160303e-16   -6.4874725e-16   -4.9948538e-16   -5.7317084e-16   -5.3539978e-08    2.5965389e-07    2.5965389e-07   -5.2000263e-07   -6.9040168e-16   -5.7331261e-16   -7.0803262e-16   -5.5688043e-16   -6.3170764e-16   -7.4908957e-16    1.2837177e-07    1.2837177e-07   -7.6674084e-16   -3.9004127e-07   -6.3191712e-16   -6.1459842e-16   -6.9036642e-16    5.3539978e-08    5.3539978e-08   -2.5965389e-07   -7.4911086e-16   -6.7253765e-16   -6.9032656e-16   -1.2837177e-07   -7.3108292e-16   -7.4918815e-16   -5.3539978e-08
            </DataArray>
            <DataArray type="Float64" Name="fy" NumberOfComponents="1" format="ascii">