<?xml version="1.0"?>
<VTKFile type="UnstructuredGrid" version="0.1" byte_order="LittleEndian">
   <UnstructuredGrid>
      <Piece NumberOfPoints="252" NumberOfCells="120">
         <Points>
            <DataArray type="Float64" NumberOfComponents="3" format="ascii">
               0.0000000e+00     0.0000000e+00     0.0000000e+00
               0.0000000e+00     5.0000000e-02     0.0000000e+00
               0.0000000e+00     0.0000000e+00     3.3333330e-02
               5.0000000e-02     0.0000000e+00     0.0000000e+00
               0.0000000e+00     1.0000000e-01     0.0000000e+00
               0.0000000e+00     0.0000000e+00     6.6666670e-02
               1.0000000e-01     0.0000000e+00     0.0000000e+00
               5.0000000e-02     0.0000000e+00     3.3333330e-02
               0.0000000e+00     5.0000000e-02     3.3333330e-02
               5.0000000e-02     5.0000000e-02     0.0000000e+00
               0.0000000e+00     0.0000000e+00     1.0000000e-01
               1.5000000e-01     0.0000000e+00     0.0000000e+00
               5.0000000e-02     1.0000000e-01     0.0000000e+00
               0.0000000e+00     1.0000000e-01     3.3333330e-02
               1.0000000e-01     5.0000000e-02     0.0000000e+00
               1.0000000e-01     0.0000000e+00     3.3333330e-02
               5.0000000e-02     0.0000000e+00     6.6666670e-02
               0.0000000e+00     5.0000000e-02     6.6666670e-02
               5.0000000e-02     5.0000000e-02     3.3333330e-02
               2.0000000e-01     0.0000000e+00     0.0000000e+00
               0.0000000e+00     1.0000000e-01     6.6666670e-02
               1.0000000e-01     1.0000000e-01     0.0000000e+00
               5.0000000e-02     0.0000000e+00     1.0000000e-01
               0.0000000e+00     5.0000000e-02     1.0000000e-01
               1.5000000e-01     0.0000000e+00     3.3333330e-02
               1.5000000e-01     5.0000000e-02     0.0000000e+00
               5.0000000e-02     1.0000000e-01     3.3333330e-02
               1.0000000e-01     0.0000000e+00     6.6666670e-02
               5.0000000e-02     5.0000000e-02     6.6666670e-02
               1.0000000e-01     5.0000000e-02     3.3333330e-02
               0.0000000e+00     1.0000000e-01     1.0000000e-01
               2.5000000e-01     0.0000000e+00     0.0000000e+00
               1.5000000e-01     1.0000000e-01     0.0000000e+00
               1.0000000e-01     0.0000000e+00     1.0000000e-01
               2.0000000e-01     0.0000000e+00     3.3333330e-02
               1.5000000e-01     0.0000000e+00     6.6666670e-02
               1.0000000e-01     1.0000000e-01     3.3333330e-02
               5.0000000e-02     5.0000000e-02     1.0000000e-01
               5.0000000e-02     1.0000000e-01     6.6666670e-02
               2.0000000e-01     5.0000000e-02     0.0000000e+00
               1.5000000e-01     5.0000000e-02     3.3333330e-02
               1.0000000e-01     5.0000000e-02     6.6666670e-02
               2.0000000e-01     1.0000000e-01     0.0000000e+00
               5.0000000e-02     1.0000000e-01     1.0000000e-01
               3.0000000e-01     0.0000000e+00     0.0000000e+00
               1.5000000e-01     0.0000000e+00     1.0000000e-01
               1.0000000e-01     5.0000000e-02     1.0000000e-01
               1.0000000e-01     1.0000000e-01     6.6666670e-02
               2.5000000e-01     0.0000000e+00     3.3333330e-02
               1.5000000e-01     1.0000000e-01     3.3333330e-02
               2.5000000e-01     5.0000000e-02     0.0000000e+00
               2.0000000e-01     0.0000000e+00     6.6666670e-02
               2.0000000e-01     5.0000000e-02     3.3333330e-02
               1.5000000e-01     5.0000000e-02     6.6666670e-02
               3.5000000e-01     0.0000000e+00     0.0000000e+00
               1.0000000e-01     1.0000000e-01     1.0000000e-01
               2.5000000e-01     1.0000000e-01     0.0000000e+00
               2.0000000e-01     0.0000000e+00     1.0000000e-01
               2.0000000e-01     1.0000000e-01     3.3333330e-02
               3.0000000e-01     5.0000000e-02     0.0000000e+00
               1.5000000e-01     5.0000000e-02     1.0000000e-01
               1.5000000e-01     1.0000000e-01     6.6666670e-02
               3.0000000e-01     0.0000000e+00     3.3333330e-02
               2.5000000e-01     0.0000000e+00     6.6666670e-02
               2.5000000e-01     5.0000000e-02     3.3333330e-02
               2.0000000e-01     5.0000000e-02     6.6666670e-02
               2.5000000e-01     0.0000000e+00     1.0000000e-01
               3.0000000e-01     1.0000000e-01     0.0000000e+00
               4.0000000e-01     0.0000000e+00     0.0000000e+00
               1.5000000e-01     1.0000000e-01     1.0000000e-01
               3.0000000e-01     0.0000000e+00     6.6666670e-02
               2.0000000e-01     1.0000000e-01     6.6666670e-02
               2.5000000e-01     1.0000000e-01     3.3333330e-02
               2.0000000e-01     5.0000000e-02     1.0000000e-01
               3.5000000e-01     5.0000000e-02     0.0000000e+00
               3.5000000e-01     0.0000000e+00     3.3333330e-02
               2.5000000e-01     5.0000000e-02     6.6666670e-02
               3.0000000e-01     5.0000000e-02     3.3333330e-02
               3.0000000e-01     0.0000000e+00     1.0000000e-01
               3.5000000e-01     1.0000000e-01     0.0000000e+00
               4.5000000e-01     0.0000000e+00     0.0000000e+00
               2.0000000e-01     1.0000000e-01     1.0000000e-01
               4.0000000e-01     0.0000000e+00     3.3333330e-02
               4.0000000e-01     5.0000000e-02     0.0000000e+00
               3.0000000e-01     1.0000000e-01     3.3333330e-02
               2.5000000e-01     5.0000000e-02     1.0000000e-01
               2.5000000e-01     1.0000000e-01     6.6666670e-02
               3.5000000e-01     0.0000000e+00     6.6666670e-02
               3.0000000e-01     5.0000000e-02     6.6666670e-02
               3.5000000e-01     5.0000000e-02     3.3333330e-02
               3.5000000e-01     0.0000000e+00     1.0000000e-01
               5.0000000e-01     0.0000000e+00     0.0000000e+00
               2.5000000e-01     1.0000000e-01     1.0000000e-01
               4.0000000e-01     1.0000000e-01     0.0000000e+00
               3.0000000e-01     1.0000000e-01     6.6666670e-02
               4.0000000e-01     0.0000000e+00     6.6666670e-02
               4.5000000e-01     5.0000000e-02     0.0000000e+00
               4.5000000e-01     0.0000000e+00     3.3333330e-02
               3.0000000e-01     5.0000000e-02     1.0000000e-01
               3.5000000e-01     1.0000000e-01     3.3333330e-02
               3.5000000e-01     5.0000000e-02     6.6666670e-02
               4.0000000e-01     5.0000000e-02     3.3333330e-02
               4.5000000e-01     1.0000000e-01     0.0000000e+00
               5.5000000e-01     0.0000000e+00     0.0000000e+00
               4.0000000e-01     0.0000000e+00     1.0000000e-01
               3.0000000e-01     1.0000000e-01     1.0000000e-01
               3.5000000e-01     1.0000000e-01     6.6666670e-02
               4.0000000e-01     1.0000000e-01     3.3333330e-02
               5.0000000e-01     5.0000000e-02     0.0000000e+00
               4.5000000e-01     0.0000000e+00     6.6666670e-02
               5.0000000e-01     0.0000000e+00     3.3333330e-02
               3.5000000e-01     5.0000000e-02     1.0000000e-01
               4.5000000e-01     5.0000000e-02     3.3333330e-02
               4.0000000e-01     5.0000000e-02     6.6666670e-02
               4.5000000e-01     0.0000000e+00     1.0000000e-01
               5.0000000e-01     1.0000000e-01     0.0000000e+00
               3.5000000e-01     1.0000000e-01     1.0000000e-01
               6.0000000e-01     0.0000000e+00     0.0000000e+00
               4.0000000e-01     1.0000000e-01     6.6666670e-02
               5.5000000e-01     0.0000000e+00     3.3333330e-02
               5.0000000e-01     0.0000000e+00     6.6666670e-02
               4.0000000e-01     5.0000000e-02     1.0000000e-01
               4.5000000e-01     1.0000000e-01     3.3333330e-02
               5.5000000e-01     5.0000000e-02     0.0000000e+00
               5.0000000e-01     5.0000000e-02     3.3333330e-02
               4.5000000e-01     5.0000000e-02     6.6666670e-02
               5.0000000e-01     0.0000000e+00     1.0000000e-01
               6.5000000e-01     0.0000000e+00     0.0000000e+00
               5.5000000e-01     1.0000000e-01     0.0000000e+00
               4.0000000e-01     1.0000000e-01     1.0000000e-01
               4.5000000e-01     5.0000000e-02     1.0000000e-01
               4.5000000e-01     1.0000000e-01     6.6666670e-02
               5.5000000e-01     0.0000000e+00     6.6666670e-02
               6.0000000e-01     0.0000000e+00     3.3333330e-02
               6.0000000e-01     5.0000000e-02     0.0000000e+00
               5.0000000e-01     1.0000000e-01     3.3333330e-02
               5.5000000e-01     5.0000000e-02     3.3333330e-02
               5.0000000e-01     5.0000000e-02     6.6666670e-02
               6.0000000e-01     1.0000000e-01     0.0000000e+00
               5.5000000e-01     0.0000000e+00     1.0000000e-01
               4.5000000e-01     1.0000000e-01     1.0000000e-01
               7.0000000e-01     0.0000000e+00     0.0000000e+00
               6.5000000e-01     5.0000000e-02     0.0000000e+00
               5.0000000e-01     1.0000000e-01     6.6666670e-02
               5.0000000e-01     5.0000000e-02     1.0000000e-01
               5.5000000e-01     1.0000000e-01     3.3333330e-02
               6.5000000e-01     0.0000000e+00     3.3333330e-02
               6.0000000e-01     0.0000000e+00     6.6666670e-02
               5.5000000e-01     5.0000000e-02     6.6666670e-02
[...]
         <PointData>
            <DataArray type="Int32" Name="node-id" NumberOfComponents="1" format="ascii">
               1  2  3  4  5  6  7  8  9  10  11  12  13  14  15  16  17  18  19  20  21  22  23  24  25  26  27  28  29  30  31  32  33  34  35  36  37  38  39  40  41  42  43  44  45  46  47  48  49  50  51  52  53  54  55  56  57  58  59  60  61  62  63  64  65  66  67  68  69  70  71  72  73  74  75  76  77  78  79  80  81  82  83  84  85  86  87  88  89  90  91  92  93  94  95  96  97  98  99  100  101  102  103  104  105  106  107  108  109  110  111  112  113  114  115  116  117  118  119  120  121  122  123  124  125  126  127  128  129  130  131  132  133  134  135  136  137  138  139  140  141  142  143  144  145  146  147  148  149  150  151  152  153  154  155  156  157  158  159  160  161  162  163  164  165  166  167  168  169  170  171  172  173  174  175  176  177  178  179  180  181  182  183  184  185  186  187  188  189  190  191  192  193  194  195  196  197  198  199  200  201  202  203  204  205  206  207  208  209  210  211  212  213  214  215  216  217  218  219  220  221  222  223  224  225  226  227  228  229  230  231  232  233  234  235  236  237  238  239  240  241  242  243  244  245  246  247  248  249  250  251  252  
            </DataArray>
            <DataArray type="Float64" Name="ux" NumberOfComponents="1" format="ascii">
               0.0000000e+00    0.0000000e+00    0.0000000e+00   -1.4312698e-04    0.0000000e+00    0.0000000e+00   -2.7969448e-04   -4.6419667e-05    0.0000000e+00   -1.4000050e-04    0.0000000e+00   -4.1090575e-04   -1.4312698e-04    0.0000000e+00   -2.8023007e-04   -9.2612150e-05    4.6419667e-05    0.0000000e+00   -4.4293531e-05   -5.3444324e-04    0.0000000e+00   -2.7969448e-04    1.4312698e-04    0.0000000e+00   -1.3603921e-04   -4.1130470e-04   -4.6419667e-05    9.2612150e-05    4.4293531e-05   -9.2919698e-05    0.0000000e+00   -6.5049861e-04   -4.1090575e-04    2.7969448e-04   -1.7729033e-04    1.3603921e-04   -9.2612150e-05    1.4000050e-04    4.6419667e-05   -5.3480529e-04   -1.3631297e-04    9.2919698e-05   -5.3444324e-04    1.4312698e-04   -7.5906329e-04    4.1090575e-04    2.8023007e-04    9.2612150e-05   -2.1596337e-04   -1.3603921e-04   -6.5086118e-04    1.7729033e-04   -1.7751030e-04    1.3631297e-04   -8.6014211e-04    2.7969448e-04   -6.5049861e-04    5.3444324e-04   -1.7729033e-04   -7.5942773e-04    4.1130470e-04    1.3603921e-04   -2.5215346e-04    2.1596337e-04   -2.1619434e-04    1.7751030e-04    6.5049861e-04   -7.5906329e-04   -9.5373328e-04    4.1090575e-04    2.5215346e-04    1.7729033e-04   -2.1596337e-04    5.3480529e-04   -8.6050603e-04   -2.8584609e-04    2.1619434e-04   -2.5238268e-04    7.5906329e-04   -8.6014211e-04   -1.0398373e-03    5.3444324e-04   -3.1704322e-04   -9.5409731e-04   -2.5215346e-04    6.5086118e-04    2.1596337e-04    2.8584609e-04    2.5238268e-04   -2.8607566e-04    8.6014211e-04   -1.1184538e-03    6.5049861e-04   -9.5373328e-04    2.5215346e-04    3.1704322e-04   -1.0402013e-03   -3.4574451e-04    7.5942773e-04   -2.8584609e-04    2.8607566e-04   -3.1727270e-04   -1.0398373e-03   -1.1895832e-03    9.5373328e-04    7.5906329e-04    2.8584609e-04   -3.1704322e-04   -1.1188178e-03    3.4574451e-04   -3.7195007e-04    8.6050603e-04   -3.4597403e-04    3.1727270e-04    1.0398373e-03   -1.1184538e-03    8.6014211e-04   -1.2532253e-03    3.1704322e-04   -3.9565985e-04    3.7195007e-04    9.5409731e-04   -3.4574451e-04   -1.1899472e-03   -3.7217958e-04    3.4597403e-04    1.1184538e-03   -1.3093799e-03   -1.1895832e-03    9.5373328e-04    1.0402013e-03    3.4574451e-04    3.9565985e-04   -4.1687387e-04   -1.2535893e-03   -3.7195007e-04   -3.9588936e-04    3.7217958e-04   -1.2532253e-03    1.1895832e-03    1.0398373e-03   -1.3580474e-03   -1.3097440e-03    3.7195007e-04    1.1188178e-03   -3.9565985e-04   -4.3559211e-04    4.1687387e-04    3.9588936e-04   -4.1710338e-04   -1.3093799e-03   -1.3992275e-03    1.1184538e-03    1.2532253e-03   -4.5181462e-04    3.9565985e-04   -1.3584114e-03   -4.1687387e-04    1.1899472e-03    4.3559211e-04    4.1710338e-04   -4.3582162e-04   -1.4329205e-03    1.3093799e-03   -1.3580474e-03    1.1895832e-03   -4.6554132e-04    1.2535893e-03    4.5181462e-04   -1.3995916e-03   -4.3559211e-04    4.1687387e-04   -4.5204413e-04    4.3582162e-04   -1.3992275e-03    1.3580474e-03   -1.4591261e-03    1.2532253e-03    1.3097440e-03    4.3559211e-04   -4.7677240e-04   -1.4332844e-03   -4.5181462e-04    4.6554132e-04    4.5204413e-04   -4.6577083e-04   -1.4778373e-03   -1.4329205e-03    1.3093799e-03    1.3992275e-03   -4.8550690e-04   -4.6554132e-04   -1.4594900e-03    1.3584114e-03    4.7677240e-04    4.5181462e-04    4.6577083e-04   -4.7700168e-04   -1.4891179e-03   -1.4591261e-03    1.4329205e-03    1.3580474e-03   -4.7677240e-04    4.6554132e-04   -4.9174554e-04   -1.4782145e-03    4.8550690e-04    1.3995916e-03    4.7700168e-04   -4.8573731e-04   -1.4929732e-03   -1.4778373e-03    1.3992275e-03    1.4591261e-03   -4.8550690e-04   -4.9551018e-04   -1.4893857e-03    4.9174554e-04    1.4332844e-03    4.7677240e-04   -4.9197866e-04    4.8573731e-04   -4.9680355e-04    1.4778373e-03   -1.4891179e-03   -1.4931187e-03    1.4329205e-03    4.9551018e-04    4.8550690e-04    1.4594900e-03   -4.9174554e-04    4.9197866e-04   -4.9569400e-04   -1.4929732e-03    1.4891179e-03    4.9680355e-04    1.4591261e-03   -4.9693679e-04    1.4782145e-03   -4.9551018e-04    4.9174554e-04    4.9569400e-04    1.4929732e-03   -4.9680355e-04    1.4778373e-03    4.9551018e-04    1.4893857e-03    4.9693679e-04    1.4931187e-03    4.9680355e-04    1.4891179e-03    1.4929732e-03
            </DataArray>
            <DataArray type="Float64" Name="fx" NumberOfComponents="1" format="ascii">
               2.3108733e+02    4.4063617e+02    1.6263940e+02    8.8817842e-15    2.3108733e+02   -1.6263940e+02    6.9277917e-14    2.2648550e-14    2.9979037e+02   -8.8817842e-16   -2.3108733e+02    1.0436096e-13    5.7731597e-14    1.6263940e+02    2.5934810e-13   -4.8849813e-15    7.0388140e-14   -2.9979037e+02    4.5297099e-14   -3.8191672e-14   -1.6263940e+02    5.7731597e-14   -1.4210855e-14   -4.4063617e+02   -1.2478907e-13    4.1389114e-13    6.6613381e-16    1.3322676e-14   -1.8651747e-14    7.4384943e-14   -2.3108733e+02   -6.1417538e-13   -1.0880186e-13   -1.8651747e-14   -1.4765966e-13   -5.5511151e-15    6.1284311e-14   -3.1974423e-14   -3.1974423e-14   -7.8159701e-14   -1.8696156e-13    9.3258734e-15    3.5216274e-13   -2.0428104e-14    6.8123285e-13    3.4638958e-14    2.9309888e-14    2.8421709e-14   -1.7164048e-13    1.2012613e-13    2.0561330e-13    6.2838623e-14    3.3373304e-13   -1.9473312e-13   -5.3157478e-13   -4.2632564e-14   -2.0738966e-13    4.0634163e-13    1.5898394e-13    9.9698028e-13   -1.2434498e-14   -1.2501111e-13    4.7517545e-13   -2.5557334e-13   -6.2394534e-14   -1.0658141e-14   -1.3544721e-13    2.9087843e-13   -1.5365487e-13    4.8405724e-14    6.8389738e-14    7.8603790e-14   -7.7493567e-14   -5.1958438e-14    1.2145840e-12   -4.8738791e-14   -1.2323476e-13    6.0096372e-13   -3.7747583e-14    1.3233858e-13    8.4288132e-13    5.1514348e-14   -9.6700425e-14   -4.4941828e-13    1.9040325e-13   -4.3343107e-13    1.0769163e-13    1.6053825e-13   -7.9380946e-13    1.0642598e-12    1.3855583e-13   -1.0151879e-12   -3.0508929e-13    6.7590378e-13    1.6431301e-13   -7.6738615e-13    1.5831780e-12    1.1712853e-13    5.2713389e-13    5.5178084e-14   -4.4408921e-15   -3.2807090e-12   -2.6600944e-13   -6.6613381e-14   -3.6681769e-13    2.3625546e-13   -3.7592152e-13   -5.0814908e-13    1.3491430e-12   -8.7485574e-14    1.1484147e-12   -2.5757174e-13   -6.8456352e-13   -4.5008441e-13    4.6096460e-13   -7.6871842e-13   -2.3980817e-13    1.8325341e-12   -4.8916426e-13   -7.5084383e-13   -1.1127765e-12    1.8030022e-13    4.4320103e-13    5.1647575e-13    5.3776983e-12    2.4336089e-13   -3.9568349e-13   -1.0333956e-12   -4.1500137e-13   -4.7517545e-13    1.7896795e-12    1.1368684e-13    1.3203882e-12   -4.6285198e-13   -7.0277117e-13    2.2870594e-13   -1.0510481e-12   -1.9906299e-13    1.7141844e-13   -6.3504757e-14    2.4957814e-13   -3.1086245e-15    6.3993255e-13    3.0686564e-13   -8.5620400e-13    4.3576254e-13    6.9644290e-13    5.4567462e-13   -3.0309089e-13    2.1027624e-13   -3.9190873e-13    2.8221869e-13    2.5135449e-13    7.0055073e-13    1.2746471e-12   -7.7005069e-13    4.1369130e-12    1.6608936e-13    1.0698109e-12   -2.1131985e-12   -6.9411143e-13    2.1449509e-13    1.2374546e-12   -3.5860204e-13   -5.1270099e-13    4.1633363e-13    3.2880365e-12   -1.4372947e-12    5.9785510e-14   -1.1644019e-12   -1.5737411e-12   -4.6995741e-13   -4.2056358e-12   -1.5731860e-13   -9.4813046e-13   -7.3585582e-13    8.9439567e-13    1.1959322e-12    1.6400215e-12    5.3368421e-13    1.3135049e-12   -1.6432411e-12   -1.8884894e-12    1.2842505e-12   -3.2895908e-12   -1.5496493e-12    1.5796253e-12    3.5083048e-13    8.1934459e-13   -9.3614005e-13    4.3426374e-13   -2.2753466e-12    2.1255220e-12    2.3312463e-12   -2.2467583e-12   -1.0945134e-12   -1.0599299e-12    1.7533197e-12    1.1479706e-13   -1.5453194e-12   -1.2293500e-12    1.2503332e-12    6.2805317e-13   -6.3571370e-13    1.1657342e-12    1.4147572e-12   -2.4857616e-12   -4.1133763e-12   -2.0894397e-12    3.4161007e-12   -1.2691480e-12   -9.0921715e-13   -6.1506356e-13   -2.0561330e-13    9.3203223e-13    2.2173929e-12   -1.0192402e-12    2.5770566e-12   -2.0238256e-12   -2.2995494e-12    4.6799786e-12   -1.6515678e-12   -6.4229178e-13   -2.6568747e-12    8.6247676e-13    1.3917045e-12    1.4438450e-12    2.6560906e-12    1.7378043e-12   -4.7908344e-12    2.4492075e-12   -2.4469385e-12   -6.8570150e-13   -2.4927629e-13    3.3689718e-13   -1.6504298e-12   -1.5343282e-13   -1.1771972e-12   -2.1263546e-12    8.6147756e-13    1.9023255e-12    7.0713504e-12    5.8619082e-13   -1.0530465e-13    3.5906833e-12   -4.2282844e-13   -4.8668292e-12   -2.8078928e-12    4.0207941e-13   -1.8655077e-12   -1.1651513e-12   -1.1265260e-12
            </DataArray>
            <DataArray type="Float64" Name="uy" NumberOfComponents="1" format="ascii">
               0.0000000e+00    0.0000000e+00    0.0000000e+00   -2.6934844e-05    0.0000000e+00    0.0000000e+00   -2.5103493e-05   -9.6461627e-06    0.0000000e+00    1.9752216e-17    0.0000000e+00   -2.3557091e-05    2.6934844e-05    0.0000000e+00    7.4632583e-17   -8.9633868e-06    9.6461627e-06    0.0000000e+00    1.8880103e-17   -2.2158210e-05    0.0000000e+00    2.5103493e-05    2.6934844e-05    0.0000000e+00   -8.2985971e-06    1.5789770e-16    9.6461627e-06    8.9633868e-06    1.5546656e-17    7.0432173e-17    0.0000000e+00   -2.0783287e-05    2.3557091e-05    2.5103493e-05   -7.8411167e-06    8.2985971e-06    8.9633868e-06    9.5822505e-18   -9.6461627e-06    2.6693394e-16    1.4999299e-16    6.3596114e-17    2.2158210e-05   -2.6934844e-05   -1.9395762e-05    2.3557091e-05    5.4175949e-17   -8.9633868e-06   -7.3468750e-06    8.2985971e-06    3.9881072e-16    7.8411167e-06    2.5547022e-16    1.3975146e-16   -1.8010616e-05   -2.5103493e-05    2.0783287e-05    2.2158210e-05    7.8411167e-06    5.5077322e-16    1.2714704e-16   -8.2985971e-06   -6.8579261e-06    7.3468750e-06    3.8395884e-16    2.4189350e-16    2.0783287e-05    1.9395762e-05   -1.6625148e-05   -2.3557091e-05    6.8579261e-06   -7.8411167e-06    7.3468750e-06    2.2616187e-16    7.2049856e-16   -6.3678781e-06    3.6723495e-16    5.3264502e-16    1.9395762e-05    1.8010616e-05   -1.5239725e-05   -2.2158210e-05   -5.8780779e-06    9.0411619e-16    6.8579261e-06    3.4863479e-16   -7.3468750e-06    6.3678781e-06    5.1281688e-16    6.9871637e-16    1.8010616e-05   -1.3854295e-05   -2.0783287e-05    1.6625148e-05   -6.8579261e-06    5.8780779e-06    1.1003564e-15   -5.3882327e-06    4.9137869e-16    6.3678781e-06    6.7588465e-16    8.7955584e-16    1.5239725e-05   -1.2468865e-05    1.6625148e-05   -1.9395762e-05   -6.3678781e-06    5.8780779e-06    1.3066246e-15    5.3882327e-06   -4.8983939e-06    6.5165585e-16    1.0725268e-15    8.5397221e-16    1.5239725e-05    1.3854295e-05   -1.8010616e-05   -1.1083436e-05   -5.8780779e-06   -4.4085546e-06    4.8983939e-06    8.2762144e-16    5.3882327e-06    1.5192595e-15    1.2761682e-15    1.0444773e-15    1.3854295e-05   -9.6980066e-06    1.2468865e-05   -1.6625148e-05    1.0155351e-15   -5.3882327e-06    4.4085546e-06   -3.9187153e-06    1.7375503e-15    4.8983939e-06    1.4867668e-15    1.2447668e-15    1.1083436e-05    1.2468865e-05   -1.5239725e-05   -8.3125788e-06    1.9586280e-15   -4.8983939e-06    1.2130708e-15    4.4085546e-06   -3.4288757e-06    3.9187153e-06    1.4541423e-15    1.7039884e-15    9.6980066e-06   -6.9271264e-06   -1.3854295e-05    1.1083436e-05   -2.9390367e-06   -4.4085546e-06    2.1826440e-15    3.9187153e-06    1.4206120e-15    3.4288757e-06    1.6702212e-15    1.9260201e-15   -5.5417618e-06    9.6980066e-06    8.3125788e-06   -1.2468865e-05   -2.4491953e-06    1.6358181e-15    2.9390367e-06    2.4092652e-15    3.4288757e-06   -3.9187153e-06    2.1500316e-15    1.8917778e-15    6.9271264e-06    8.3125788e-06   -4.1568937e-06   -1.1083436e-05    1.8570835e-15   -3.4288757e-06   -1.9593149e-06    2.6384712e-15    2.9390367e-06    2.4491953e-06    2.1173907e-15    2.3772905e-15   -2.7679835e-06    5.5417618e-06   -9.6980066e-06    6.9271264e-06   -1.4701387e-06    2.4491953e-06    2.8641794e-15    2.0834704e-15    1.9593149e-06   -2.9390367e-06    2.3454141e-15    2.6072087e-15   -1.3432212e-06    4.1568937e-06    5.5417618e-06   -8.3125788e-06    1.9593149e-06   -2.4491953e-06   -9.7729958e-07    3.0865074e-15    1.4701387e-06    2.3139329e-15    2.5774084e-15    2.8366392e-15   -4.8947129e-07    2.7679835e-06   -6.9271264e-06    4.1568937e-06    1.4701387e-06   -4.7212970e-07    3.3064422e-15    9.7729958e-07    2.5472943e-15   -1.9593149e-06    3.0652299e-15    2.8105000e-15   -2.0127872e-07    2.7679835e-06    1.3432212e-06    3.5333374e-15   -5.5417618e-06    4.7212970e-07   -1.4701387e-06    2.7846123e-15    9.7729958e-07    3.0451779e-15    3.2941586e-15    4.8947129e-07    1.3432212e-06    2.0127874e-07   -4.1568937e-06    3.5269118e-15    3.0268451e-15    4.7212970e-07   -9.7729958e-07    3.2823840e-15    4.8947129e-07    2.0127874e-07   -2.7679835e-06   -4.7212970e-07    3.2710657e-15    3.5171142e-15    3.5109312e-15   -2.0127872e-07   -1.3432212e-06   -4.8947129e-07
            </DataArray>
            <DataArray type="Float64" Name="fy" NumberOfComponents="1" format="ascii">
               4.0954105e+01    2.6116886e-12    3.4599888e+01   -2.3536728e-14   -4.0954105e+01   -3.4599888e+01    1.0872379e-13    2.1746493e-14    6.4989264e-12   -9.9156794e-15   -4.0954105e+01    1.5973160e-13   -2.8102520e-14   -3.4599888e+01   -4.8270415e-14   -1.2029266e-13   -6.5156214e-15    1.4979185e-11    2.7613328e-14    1.4749139e-13    3.4599888e+01   -1.4948112e-14    5.2041704e-15    1.3549051e-11   -2.6353919e-14    2.2700591e-13   -1.2545520e-14   -4.3222370e-14    2.3939184e-15    3.2363001e-14    4.0954105e+01    3.6982570e-13   -2.8282932e-14    4.2188475e-14   -1.9556579e-13   -9.5812247e-14    1.6250890e-14   -3.5277337e-14   -8.2572837e-15   -2.5570171e-13    1.2297802e-13   -2.1399549e-14    4.3583193e-14   -2.6367797e-16   -1.1633229e-13    2.3094374e-14    3.3240771e-14   -5.4192761e-15    2.0729252e-13   -1.0133561e-13    7.2091638e-14    1.6014967e-13   -3.2043812e-14   -2.6978419e-14   -1.4088383e-13    1.4989746e-14    2.1679707e-13    1.7728874e-15   -1.7735813e-14   -7.3482886e-15   -1.0413198e-13   -1.5410589e-13    4.5669718e-13    1.2390089e-13   -4.9740767e-13   -1.1486645e-13    4.8268854e-13    4.4299113e-13    8.1117578e-13    1.1958490e-13   -3.5549341e-13   -1.6226603e-13    3.0857261e-13   -3.7172349e-13    6.8656192e-13    2.5901503e-13   -1.7472135e-14   -3.1447067e-14    2.4391253e-13    2.1536245e-13   -7.1795347e-13    1.5262618e-13    4.1432136e-14    1.6714720e-12   -9.5944086e-14    2.7359365e-13    2.9173192e-13   -1.6197460e-13    6.0472460e-13   -2.9200947e-13    6.4774401e-13    9.8277983e-13   -4.6813248e-14    6.7446049e-14   -1.2344292e-14    1.9242941e-13    6.7201800e-13    4.5038279e-13    4.6251544e-13    3.3063829e-13   -3.7309045e-13    3.4353770e-13    4.1031935e-13   -9.8150307e-13   -2.8829369e-14    3.0143943e-13   -2.9905939e-13   -1.8832158e-12    4.5851170e-13    8.9511037e-13    4.1775611e-13    7.4883849e-13    3.8497330e-13    1.7402399e-12    4.1694079e-14    5.0837633e-13   -2.6926725e-13    8.2794882e-13   -3.7430475e-13    4.9174553e-13   -3.0397906e-13    8.5480234e-13    2.2575691e-13    2.9716507e-13    2.0461549e-12    2.2982380e-12   -4.3014203e-13    1.0854373e-12    1.4109668e-12    3.1398495e-16    6.6034678e-13    1.1630974e-12    2.5443363e-12    1.1046025e-13    3.2512916e-12    6.7765238e-13    6.3505451e-13    5.3755611e-14    5.9184428e-13    5.4522879e-13   -6.3412470e-13    6.8072978e-13    2.2775601e-12    3.6147127e-13   -8.7646210e-13    7.7673978e-13    3.8821481e-12    1.3572928e-12    3.4342668e-13    1.6277674e-12    1.4716058e-12   -1.4329267e-12   -1.6712326e-12   -4.5571186e-15    2.4676441e-12   -1.3759133e-12    1.8956468e-12   -3.0583869e-13   -1.5887985e-12    1.6330860e-12    5.5018490e-13    2.2370786e-12    6.7893260e-13   -2.8385280e-14    3.2770835e-13   -2.1784657e-14   -5.0377758e-13   -2.5038617e-12    2.0852608e-12    2.7024719e-12   -2.3281273e-12    7.1647202e-13   -3.5573107e-12   -2.5879125e-12   -1.3257243e-12    9.4605920e-13   -1.5721157e-12   -9.1924558e-13    3.7209819e-13   -2.7279567e-13    3.5094185e-12    1.7285097e-12    2.4397741e-12   -3.9666308e-12    1.2827621e-12   -3.6627923e-12    3.3271649e-12    2.6562624e-12   -7.1284992e-14   -7.6169279e-13    3.6701753e-12   -1.5405420e-12    3.2051063e-12   -1.8224016e-12    9.9447013e-13   -2.5586529e-12   -1.0755702e-12    2.0095904e-13    4.6189268e-12   -4.7722937e-13    6.8631038e-13   -6.9059862e-13   -2.1035014e-12    5.0619231e-13    1.2754485e-12    1.7771652e-12    4.8350490e-12   -5.1082923e-13    1.4624846e-12   -2.9346924e-12   -8.0266889e-14   -4.4407533e-13   -4.2980723e-13   -4.0262082e-12   -5.3498005e-12   -1.2685963e-12   -5.7528721e-12    1.8712536e-12    5.0430042e-12   -9.9267296e-13    2.5978135e-12    4.6932172e-12    1.5146625e-12    2.0815120e-13    8.5249169e-13   -1.0810174e-12   -5.5700236e-13    3.3940489e-12   -2.5603651e-14   -1.1738960e-12   -4.9068492e-12    9.4912272e-13   -8.3379588e-12    7.4048309e-13    1.1689677e-12    2.3901350e-12   -2.2724357e-12    4.2035147e-13   -1.8549919e-12   -7.2754823e-13    9.6740151e-13    3.5173687e-13    7.6297703e-13    9.5277432e-13    1.9555364e-13    2.5843433e-12    1.1568472e-12    7.7424086e-13   -9.1107915e-13    2.8986882e-13   -3.6829220e-12    1.2977076e-13
            </DataArray>
            <DataArray type="Float64" Name="uz" NumberOfComponents="1" format="ascii">