<?xml version="1.0"?>
<VTKFile type="UnstructuredGrid" version="0.1" byte_order="LittleEndian">
   <UnstructuredGrid>
      <Piece NumberOfPoints="252" NumberOfCells="120">
         <Points>
            <DataArray type="Float64" NumberOfComponents="3" format="ascii">
               0.0000000e+00     0.0000000e+00     0.0000000e+00
               0.0000000e+00     5.0000000e-02     0.0000000e+00
               0.0000000e+00     0.0000000e+00     3.3333330e-02
               5.0000000e-02     0.0000000e+00     0.0000000e+00
               0.0000000e+00     1.0000000e-01     0.0000000e+00
               0.0000000e+00     0.0000000e+00     6.6666670e-02
               1.0000000e-01     0.0000000e+00     0.0000000e+00
               5.0000000e-02     0.0000000e+00     3.3333330e-02
               0.0000000e+00     5.0000000e-02     3.3333330e-02
               5.0000000e-02     5.0000000e-02     0.0000000e+00
               0.0000000e+00     0.0000000e+00     1.0000000e-01
               1.5000000e-01     0.0000000e+00     0.0000000e+00
               5.0000000e-02     1.0000000e-01     0.0000000e+00
               0.0000000e+00     1.0000000e-01     3.3333330e-02
               1.0000000e-01     5.0000000e-02     0.0000000e+00
               1.0000000e-01     0.0000000e+00     3.3333330e-02
               5.0000000e-02     0.0000000e+00     6.6666670e-02
               0.0000000e+00     5.0000000e-02     6.6666670e-02
               5.0000000e-02     5.0000000e-02     3.3333330e-02
               2.0000000e-01     0.0000000e+00     0.0000000e+00
               0.0000000e+00     1.0000000e-01     6.6666670e-02
               1.0000000e-01     1.0000000e-01     0.0000000e+00
               5.0000000e-02     0.0000000e+00     1.0000000e-01
               0.0000000e+00     5.0000000e-02     1.0000000e-01
               1.5000000e-01     0.0000000e+00     3.3333330e-02
               1.5000000e-01     5.0000000e-02     0.0000000e+00
               5.0000000e-02     1.0000000e-01     3.3333330e-02
               1.0000000e-01     0.0000000e+00     6.6666670e-02
               5.0000000e-02     5.0000000e-02     6.6666670e-02
               1.0000000e-01     5.0000000e-02     3.3333330e-02
               0.0000000e+00     1.0000000e-01     1.0000000e-01
               2.5000000e-01     0.0000000e+00     0.0000000e+00
               1.5000000e-01     1.0000000e-01     0.0000000e+00
               1.0000000e-01     0.0000000e+00     1.0000000e-01
               2.0000000e-01     0.0000000e+00     3.3333330e-02
               1.5000000e-01     0.0000000e+00     6.6666670e-02
               1.0000000e-01     1.0000000e-01     3.3333330e-02
               5.0000000e-02     5.0000000e-02     1.0000000e-01
               5.0000000e-02     1.0000000e-01     6.6666670e-02
               2.0000000e-01     5.0000000e-02     0.0000000e+00
               1.5000000e-01     5.0000000e-02     3.3333330e-02
               1.0000000e-01     5.0000000e-02     6.6666670e-02
               2.0000000e-01     1.0000000e-01     0.0000000e+00
               5.0000000e-02     1.0000000e-01     1.0000000e-01
               3.0000000e-01     0.0000000e+00     0.0000000e+00
               1.5000000e-01     0.0000000e+00     1.0000000e-01
               1.0000000e-01     5.0000000e-02     1.0000000e-01
               1.0000000e-01     1.0000000e-01     6.6666670e-02
               2.5000000e-01     0.0000000e+00     3.3333330e-02
               1.5000000e-01     1.0000000e-01     3.3333330e-02
               2.5000000e-01     5.0000000e-02     0.0000000e+00
               2.0000000e-01     0.0000000e+00     6.6666670e-02
               2.0000000e-01     5.0000000e-02     3.3333330e-02
               1.5000000e-01     5.0000000e-02     6.6666670e-02
               3.5000000e-01     0.0000000e+00     0.0000000e+00
               1.0000000e-01     1.0000000e-01     1.0000000e-01
               2.5000000e-01     1.0000000e-01     0.0000000e+00
               2.0000000e-01     0.0000000e+00     1.0000000e-01
               2.0000000e-01     1.0000000e-01     3.3333330e-02
               3.0000000e-01     5.0000000e-02     0.0000000e+00
               1.5000000e-01     5.0000000e-02     1.0000000e-01
               1.5000000e-01     1.0000000e-01     6.6666670e-02
               3.0000000e-01     0.0000000e+00     3.3333330e-02
               2.5000000e-01     0.0000000e+00     6.6666670e-02
               2.5000000e-01     5.0000000e-02     3.3333330e-02
               2.0000000e-01     5.0000000e-02     6.6666670e-02
               2.5000000e-01     0.0000000e+00     1.0000000e-01
               3.0000000e-01     1.0000000e-01     0.0000000e+00
               4.0000000e-01     0.0000000e+00     0.0000000e+00
               1.5000000e-01     1.0000000e-01     1.0000000e-01
               3.0000000e-01     0.0000000e+00     6.6666670e-02
               2.0000000e-01     1.0000000e-01     6.6666670e-02
               2.5000000e-01     1.0000000e-01     3.3333330e-02
               2.0000000e-01     5.0000000e-02     1.0000000e-01
               3.5000000e-01     5.0000000e-02     0.0000000e+00
               3.5000000e-01     0.0000000e+00     3.3333330e-02
               2.5000000e-01     5.0000000e-02     6.6666670e-02
               3.0000000e-01     5.0000000e-02     3.3333330e-02
               3.0000000e-01     0.0000000e+00     1.0000000e-01
               3.5000000e-01     1.0000000e-01     0.0000000e+00
               4.5000000e-01     0.0000000e+00     0.0000000e+00
               2.0000000e-01     1.0000000e-01     1.0000000e-01
               4.0000000e-01     0.0000000e+00     3.3333330e-02
               4.0000000e-01     5.0000000e-02     0.0000000e+00
               3.0000000e-01     1.0000000e-01     3.3333330e-02
               2.5000000e-01     5.0000000e-02     1.0000000e-01
               2.5000000e-01     1.0000000e-01     6.6666670e-02
               3.5000000e-01     0.0000000e+00     6.6666670e-02
               3.0000000e-01     5.0000000e-02     6.6666670e-02
               3.5000000e-01     5.0000000e-02     3.3333330e-02
               3.5000000e-01     0.0000000e+00     1.0000000e-01
               5.0000000e-01     0.0000000e+00     0.0000000e+00
               2.5000000e-01     1.0000000e-01     1.0000000e-01
               4.0000000e-01     1.0000000e-01     0.0000000e+00
               3.0000000e-01     1.0000000e-01     6.6666670e-02
               4.0000000e-01     0.0000000e+00     6.6666670e-02
               4.5000000e-01     5.0000000e-02     0.0000000e+00
               4.5000000e-01     0.0000000e+00     3.3333330e-02
               3.0000000e-01     5.0000000e-02     1.0000000e-01
               3.5000000e-01     1.0000000e-01     3.3333330e-02
               3.5000000e-01     5.0000000e-02     6.6666670e-02
               4.0000000e-01     5.0000000e-02     3.3333330e-02
               4.5000000e-01     1.0000000e-01     0.0000000e+00
               5.5000000e-01     0.0000000e+00     0.0000000e+00
               4.0000000e-01     0.0000000e+00     1.0000000e-01
               3.0000000e-01     1.0000000e-01     1.0000000e-01
               3.5000000e-01     1.0000000e-01     6.6666670e-02
               4.0000000e-01     1.0000000e-01     3.3333330e-02
               5.0000000e-01     5.0000000e-02     0.0000000e+00
               4.5000000e-01     0.0000000e+00     6.6666670e-02
               5.0000000e-01     0.0000000e+00     3.3333330e-02
               3.5000000e-01     5.0000000e-02     1.0000000e-01
               4.5000000e-01     5.0000000e-02     3.3333330e-02
               4.0000000e-01     5.0000000e-02     6.6666670e-02
               4.5000000e-01     0.0000000e+00     1.0000000e-01
               5.0000000e-01     1.0000000e-01     0.0000000e+00
               3.5000000e-01     1.0000000e-01     1.0000000e-01
               6.0000000e-01     0.0000000e+00     0.0000000e+00
               4.0000000e-01     1.0000000e-01     6.6666670e-02
               5.5000000e-01     0.0000000e+00     3.3333330e-02
               5.0000000e-01     0.0000000e+00     6.6666670e-02
               4.0000000e-01     5.0000000e-02     1.0000000e-01
               4.5000000e-01     1.0000000e-01     3.3333330e-02
               5.5000000e-01     5.0000000e-02     0.0000000e+00
               5.0000000e-01     5.0000000e-02     3.3333330e-02
               4.5000000e-01     5.0000000e-02     6.6666670e-02
               5.0000000e-01     0.0000000e+00     1.0000000e-01
               6.5000000e-01     0.0000000e+00     0.0000000e+00
               5.5000000e-01     1.0000000e-01     0.0000000e+00
               4.0000000e-01     1.0000000e-01     1.0000000e-01
               4.5000000e-01     5.0000000e-02     1.0000000e-01
               4.5000000e-01     1.0000000e-01     6.6666670e-02
               5.5000000e-01     0.0000000e+00     6.6666670e-02
               6.0000000e-01     0.0000000e+00     3.3333330e-02
               6.0000000e-01     5.0000000e-02     0.0000000e+00
               5.0000000e-01     1.0000000e-01     3.3333330e-02
               5.5000000e-01     5.0000000e-02     3.3333330e-02
               5.0000000e-01     5.0000000e-02     6.6666670e-02
               6.0000000e-01     1.0000000e-01     0.0000000e+00
               5.5000000e-01     0.0000000e+00     1.0000000e-01
               4.5000000e-01     1.0000000e-01     1.0000000e-01
               7.0000000e-01     0.0000000e+00     0.0000000e+00
               6.5000000e-01     5.0000000e-02     0.0000000e+00
               5.0000000e-01     1.0000000e-01     6.6666670e-02
               5.0000000e-01     5.0000000e-02     1.0000000e-01
               5.5000000e-01     1.0000000e-01     3.3333330e-02
               6.5000000e-01     0.0000000e+00     3.3333330e-02
               6.0000000e-01     0.0000000e+00     6.6666670e-02
               5.5000000e-01     5.0000000e-02     6.6666670e-02
[...]
         <PointData>
            <DataArray type="Int32" Name="node-id" NumberOfComponents="1" format="ascii">
               1  2  3  4  5  6  7  8  9  10  11  12  13  14  15  16  17  18  19  20  21  22  23  24  25  26  27  28  29  30  31  32  33  34  35  36  37  38  39  40  41  42  43  44  45  46  47  48  49  50  51  52  53  54  55  56  57  58  59  60  61  62  63  64  65  66  67  68  69  70  71  72  73  74  75  76  77  78  79  80  81  82  83  84  85  86  87  88  89  90  91  92  93  94  95  96  97  98  99  100  101  102  103  104  105  106  107  108  109  110  111  112  113  114  115  116  117  118  119  120  121  122  123  124  125  126  127  128  129  130  131  132  133  134  135  136  137  138  139  140  141  142  143  144  145  146  147  148  149  150  151  152  153  154  155  156  157  158  159  160  161  162  163  164  165  166  167  168  169  170  171  172  173  174  175  176  177  178  179  180  181  182  183  184  185  186  187  188  189  190  191  192  193  194  195  196  197  198  199  200  201  202  203  204  205  206  207  208  209  210  211  212  213  214  215  216  217  218  219  220  221  222  223  224  225  226  227  228  229  230  231  232  233  234  235  236  237  238  239  240  241  242  243  244  245  246  247  248  249  250  251  252  
            </DataArray>
            <DataArray type="Float64" Name="ux" NumberOfComponents="1" format="ascii">
               0.0000000e+00    0.0000000e+00    0.0000000e+00   -1.4312698e-04    0.0000000e+00    0.0000000e+00   -2.7969448e-04   -4.6419667e-05    0.0000000e+00   -1.4000050e-04    0.0000000e+00   -4.1090575e-04   -1.4312698e-04    0.0000000e+00   -2.8023007e-04   -9.2612150e-05    4.6419667e-05    0.0000000e+00   -4.4293531e-05   -5.3444324e-04    0.0000000e+00   -2.7969448e-04    1.4312698e-04    0.0000000e+00   -1.3603921e-04   -4.1130470e-04   -4.6419667e-05    9.2612150e-05    4.4293531e-05   -9.2919698e-05    0.0000000e+00   -6.5049861e-04   -4.1090575e-04    2.7969448e-04   -1.7729033e-04    1.3603921e-04   -9.2612150e-05    1.4000050e-04    4.6419667e-05   -5.3480529e-04   -1.3631297e-04    9.2919698e-05   -5.3444324e-04    1.4312698e-04   -7.5906329e-04    4.1090575e-04    2.8023007e-04    9.2612150e-05   -2.1596337e-04   -1.3603921e-04   -6.5086118e-04    1.7729033e-04   -1.7751030e-04    1.3631297e-04   -8.6014211e-04    2.7969448e-04   -6.5049861e-04    5.3444324e-04   -1.7729033e-04   -7.5942773e-04    4.1130470e-04    1.3603921e-04   -2.5215346e-04    2.1596337e-04   -2.1619434e-04    1.7751030e-04    6.5049861e-04   -7.5906329e-04   -9.5373328e-04    4.1090575e-04    2.5215346e-04    1.7729033e-04   -2.1596337e-04    5.3480529e-04   -8.6050603e-04   -2.8584609e-04    2.1619434e-04   -2.5238268e-04    7.5906329e-04   -8.6014211e-04   -1.0398373e-03    5.3444324e-04   -3.1704322e-04   -9.5409731e-04   -2.5215346e-04    6.5086118e-04    2.1596337e-04    2.8584609e-04    2.5238268e-04   -2.8607566e-04    8.6014211e-04   -1.1184538e-03    6.5049861e-04   -9.5373328e-04    2.5215346e-04    3.1704322e-04   -1.0402013e-03   -3.4574451e-04    7.5942773e-04   -2.8584609e-04    2.8607566e-04   -3.1727270e-04   -1.0398373e-03   -1.1895832e-03    9.5373328e-04    7.5906329e-04    2.8584609e-04   -3.1704322e-04   -1.1188178e-03    3.4574451e-04   -3.7195007e-04    8.6050603e-04   -3.4597403e-04    3.1727270e-04    1.0398373e-03   -1.1184538e-03    8.6014211e-04   -1.2532253e-03    3.1704322e-04   -3.9565985e-04    3.7195007e-04    9.5409731e-04   -3.4574451e-04   -1.1899472e-03   -3.7217958e-04    3.4597403e-04    1.1184538e-03   -1.3093799e-03   -1.1895832e-03    9.5373328e-04    1.0402013e-03    3.4574451e-04    3.9565985e-04   -4.1687387e-04   -1.2535893e-03   -3.7195007e-04   -3.9588936e-04    3.7217958e-04   -1.2532253e-03    1.1895832e-03    1.0398373e-03   -1.3580474e-03   -1.3097440e-03    3.7195007e-04    1.1188178e-03   -3.9565985e-04   -4.3559211e-04    4.1687387e-04    3.9588936e-04   -4.1710338e-04   -1.3093799e-03   -1.3992275e-03    1.1184538e-03    1.2532253e-03   -4.5181462e-04    3.9565985e-04   -1.3584114e-03   -4.1687387e-04    1.1899472e-03    4.3559211e-04    4.1710338e-04   -4.3582162e-04   -1.4329205e-03    1.3093799e-03   -1.3580474e-03    1.1895832e-03   -4.6554132e-04    1.2535893e-03    4.5181462e-04   -1.3995916e-03   -4.3559211e-04    4.1687387e-04   -4.5204413e-04    4.3582162e-04   -1.3992275e-03    1.3580474e-03   -1.4591261e-03    1.2532253e-03    1.3097440e-03    4.3559211e-04   -4.7677240e-04   -1.4332844e-03   -4.5181462e-04    4.6554132e-04    4.5204413e-04   -4.6577083e-04   -1.4778373e-03   -1.4329205e-03    1.3093799e-03    1.3992275e-03   -4.8550690e-04   -4.6554132e-04   -1.4594900e-03    1.3584114e-03    4.7677240e-04    4.5181462e-04    4.6577083e-04   -4.7700168e-04   -1.4891179e-03   -1.4591261e-03    1.4329205e-03    1.3580474e-03   -4.7677240e-04    4.6554132e-04   -4.9174554e-04   -1.4782145e-03    4.8550690e-04    1.3995916e-03    4.7700168e-04   -4.8573731e-04   -1.4929732e-03   -1.4778373e-03    1.3992275e-03    1.4591261e-03   -4.8550690e-04   -4.9551018e-04   -1.4893857e-03    4.9174554e-04    1.4332844e-03    4.7677240e-04   -4.9197866e-04    4.8573731e-04   -4.9680355e-04    1.4778373e-03   -1.4891179e-03   -1.4931187e-03    1.4329205e-03    4.9551018e-04    4.8550690e-04    1.4594900e-03   -4.9174554e-04    4.9197866e-04   -4.9569400e-04   -1.4929732e-03    1.4891179e-03    4.9680355e-04    1.4591261e-03   -4.9693679e-04    1.4782145e-03   -4.9551018e-04    4.9174554e-04    4.9569400e-04    1.4929732e-03   -4.9680355e-04    1.4778373e-03    4.9551018e-04    1.4893857e-03    4.9693679e-04    1.4931187e-03    4.9680355e-04    1.4891179e-03    1.4929732e-03
            </DataArray>
            <DataArray type="Float64" Name="fx" NumberOfComponents="1" format="ascii">
               2.3108733e+02    4.4063617e+02    1.6263940e+02   -2.6645353e-15    2.3108733e+02   -1.6263940e+02    7.8159701e-14    3.2862602e-14    2.9979037e+02   -1.6875390e-14   -2.3108733e+02   -1.2745360e-13    4.4408921e-14    1.6263940e+02    6.2172489e-15   -3.3084646e-14    8.8817842e-15   -2.9979037e+02   -2.5535130e-14   -1.4876989e-13   -1.6263940e+02    1.0480505e-13    2.8421709e-14   -4.4063617e+02   -6.3726802e-14    2.7089442e-14    1.3322676e-14   -3.2196468e-14    1.0658141e-14    1.1768364e-14   -2.3108733e+02   -8.4376950e-15   -6.6169292e-14   -3.8191672e-14    1.3478108e-13    7.1054274e-15    5.3068661e-14   -8.8817842e-14   -6.6391337e-14    6.6169292e-14   -2.2892799e-13   -1.5143442e-13    3.1308289e-13   -1.5099033e-14    5.4622973e-13    2.1005420e-13    3.5527137e-15   -2.8421709e-14    1.2856383e-13    1.7319479e-14    7.4651396e-13    6.6835426e-14    1.2678747e-13   -3.9745984e-14    3.7747583e-14   -1.1635137e-13   -1.7630342e-13    1.0436096e-13    4.4320103e-13    1.3202772e-12    1.1546319e-14    9.3702823e-14    4.1655568e-13    3.8635761e-14   -2.6911806e-13   -8.0824236e-14   -3.5837999e-13   -3.1130654e-13   -3.5527137e-13    6.9722006e-14   -1.7408297e-13   -2.6423308e-14    3.4638958e-13   -1.7585933e-13    8.3799634e-13    3.8502534e-13   -5.8730798e-13    4.2321702e-13    5.2402527e-14   -1.7896795e-13    5.3468341e-13   -1.2878587e-14   -7.6150197e-13   -9.6811448e-14    1.0957901e-13   -3.4994230e-13    9.1926466e-14   -1.7630342e-13   -2.8843594e-13    6.8145489e-13   -1.8030022e-13    6.7679196e-13   -1.2656542e-13    2.1316282e-13    9.8365760e-14    5.0870419e-13   -4.3787196e-13   -4.2210679e-13   -4.8583360e-13   -3.9912518e-13   -3.0997427e-13   -2.2181146e-12   -6.8256512e-13    5.0737192e-13   -7.4340534e-13    5.1958438e-14   -2.0916602e-13    4.7617466e-13    6.1994854e-13    8.2511775e-13   -1.2778667e-12    1.1102230e-13   -9.9176223e-13   -2.9776182e-13    4.1033843e-13    7.7671203e-13    6.0396133e-13    3.2196468e-13    1.4810375e-13   -2.6667557e-13    7.5561779e-13   -2.2204460e-13    1.1457502e-13   -1.6515678e-12    1.0103030e-14    9.7410968e-13   -2.0738966e-13    7.4296125e-13   -9.7033492e-14   -4.5918824e-13    5.4667382e-13    5.6465943e-13    8.5020879e-13    6.7368333e-13    6.2572170e-13    3.8169468e-13    1.2482237e-12    4.5796700e-13    1.5341062e-12    1.6016077e-12    1.0702550e-13   -7.2453155e-13   -2.6230129e-12   -4.2132964e-13   -3.5260683e-13   -1.3011814e-13    4.5219384e-13    1.7628121e-12   -1.8838264e-12    8.9483976e-13    8.7441165e-13    9.0571994e-13   -3.2862602e-13   -1.1923795e-12   -1.1155521e-12    8.0435658e-13    6.5614181e-13   -1.0867973e-12   -1.7985613e-13   -2.1427304e-13    5.1192384e-13    2.7098324e-12    7.1043171e-13   -4.8605564e-13    2.4868996e-13   -8.3377749e-13   -9.0483177e-14    1.1137757e-12   -2.7872149e-13   -1.1877166e-12    9.7621911e-13   -8.0768725e-13    1.3058443e-12    4.3965942e-12    1.0551560e-12   -8.0757623e-13    1.5492052e-12   -7.8559381e-13    1.4608315e-12   -8.1590290e-13   -7.0038420e-13   -7.0992101e-12    2.5202063e-14    1.1015633e-12    1.5227819e-12    4.4458881e-13    3.4580117e-12    1.2747581e-12    9.5190522e-13   -9.9498187e-13   -2.0090596e-12    1.2373436e-13   -1.5105694e-12    2.3687718e-12   -7.7332585e-13   -2.5916491e-12   -7.8725915e-13    9.2426067e-13    3.2771008e-13   -2.6356695e-13   -1.5935031e-12    1.3766766e-13   -1.1797230e-12   -2.3536728e-13    2.0589086e-13    3.2164271e-12   -4.9374393e-13   -4.8718807e-12   -3.0925817e-12    3.7278514e-12   -8.2344201e-13    9.7444275e-13    5.1914029e-13    1.8390844e-12    5.1680882e-14    5.7620575e-14   -1.0823564e-12    7.3779871e-13    2.9950487e-12   -4.7695181e-13   -3.4444669e-13    2.8809177e-12   -1.1623758e-12    2.0006219e-13    4.6534998e-13   -2.0357882e-12    9.4646513e-13    7.3566153e-13    2.5795754e-12    5.2369220e-13    2.2473690e-12    3.1192687e-12    1.3014312e-12    5.0900256e-14   -2.0752289e-12   -1.0924595e-13   -6.0151883e-13    3.0347946e-13   -2.3413493e-12    6.4037664e-13   -2.2871982e-13    2.8391109e-12   -8.0620059e-13    1.7538193e-12    9.3447472e-13    1.2592635e-12   -3.4413306e-12   -6.2588823e-13   -2.4029546e-12   -7.2902795e-13   -1.0673684e-12   -6.5897635e-13
            </DataArray>
            <DataArray type="Float64" Name="uy" NumberOfComponents="1" format="ascii">
               0.0000000e+00    0.0000000e+00    0.0000000e+00   -2.6934844e-05    0.0000000e+00    0.0000000e+00   -2.5103493e-05   -9.6461627e-06    0.0000000e+00    4.3934328e-17    0.0000000e+00   -2.3557091e-05    2.6934844e-05    0.0000000e+00    1.9404838e-16   -8.9633868e-06    9.6461627e-06    0.0000000e+00    5.0664938e-17   -2.2158210e-05    0.0000000e+00    2.5103493e-05    2.6934844e-05    0.0000000e+00   -8.2985971e-06    4.3210147e-16    9.6461627e-06    8.9633868e-06    4.9709505e-17    2.0019325e-16    0.0000000e+00   -2.0783287e-05    2.3557091e-05    2.5103493e-05   -7.8411167e-06    8.2985971e-06    8.9633868e-06    4.1026325e-17   -9.6461627e-06    7.5242868e-16    4.3668439e-16    1.9824502e-16    2.2158210e-05   -2.6934844e-05   -1.9395762e-05    2.3557091e-05    1.8820946e-16   -8.9633868e-06   -7.3468750e-06    8.2985971e-06    1.1481646e-15    7.8411167e-06    7.5556795e-16    4.3381976e-16   -1.8010616e-05   -2.5103493e-05    2.0783287e-05    2.2158210e-05    7.8411167e-06    1.6124628e-15    4.2348622e-16   -8.2985971e-06   -6.8579261e-06    7.3468750e-06    1.1499063e-15    7.5188155e-16    2.0783287e-05    1.9395762e-05   -1.6625148e-05   -2.3557091e-05    6.8579261e-06   -7.8411167e-06    7.3468750e-06    7.4120312e-16    2.1400578e-15   -6.3678781e-06    1.1454396e-15    1.6132964e-15    1.9395762e-05    1.8010616e-05   -1.5239725e-05   -2.2158210e-05   -5.8780779e-06    2.7229445e-15    6.8579261e-06    1.1347158e-15   -7.3468750e-06    6.3678781e-06    1.6082120e-15    2.1391631e-15    1.8010616e-05   -1.3854295e-05   -2.0783287e-05    1.6625148e-05   -6.8579261e-06    5.8780779e-06    3.3553139e-15   -5.3882327e-06    1.5974597e-15    6.3678781e-06    2.1334365e-15    2.7209021e-15    1.5239725e-05   -1.2468865e-05    1.6625148e-05   -1.9395762e-05   -6.3678781e-06    5.8780779e-06    4.0312382e-15    5.3882327e-06   -4.8983939e-06    2.1227251e-15    3.3524217e-15    2.7147226e-15    1.5239725e-05    1.3854295e-05   -1.8010616e-05   -1.1083436e-05   -5.8780779e-06   -4.4085546e-06    4.8983939e-06    2.7042046e-15    5.3882327e-06    4.7432922e-15    4.0279136e-15    3.3460228e-15    1.3854295e-05   -9.6980066e-06    1.2468865e-05   -1.6625148e-05    3.3357718e-15   -5.3882327e-06    4.4085546e-06   -3.9187153e-06    5.4897988e-15    4.8983939e-06    4.7419162e-15    4.0218971e-15    1.1083436e-05    1.2468865e-05   -1.5239725e-05   -8.3125788e-06    6.2623717e-15   -4.8983939e-06    4.0120258e-15    4.4085546e-06   -3.4288757e-06    3.9187153e-06    4.7369060e-15    5.4887943e-15    9.6980066e-06   -6.9271264e-06   -1.3854295e-05    1.1083436e-05   -2.9390367e-06   -4.4085546e-06    7.0552407e-15    3.9187153e-06    4.7286931e-15    3.4288757e-06    5.4848081e-15    6.2625300e-15   -5.5417618e-06    9.6980066e-06    8.3125788e-06   -1.2468865e-05   -2.4491953e-06    5.4790199e-15    2.9390367e-06    7.8629459e-15    3.4288757e-06   -3.9187153e-06    7.0561271e-15    6.2600313e-15    6.9271264e-06    8.3125788e-06   -4.1568937e-06   -1.1083436e-05    6.2548301e-15   -3.4288757e-06   -1.9593149e-06    8.6826637e-15    2.9390367e-06    2.4491953e-06    7.0554160e-15    7.8644748e-15   -2.7679835e-06    5.5417618e-06   -9.6980066e-06    6.9271264e-06   -1.4701386e-06    2.4491953e-06    9.5073282e-15    7.0530570e-15    1.9593149e-06   -2.9390367e-06    7.8652201e-15    8.6838733e-15   -1.3432212e-06    4.1568937e-06    5.5417618e-06   -8.3125788e-06    1.9593149e-06   -2.4491953e-06   -9.7729958e-07    1.0338362e-14    1.4701387e-06    7.8660502e-15    8.6862339e-15    9.5096558e-15   -4.8947129e-07    2.7679835e-06   -6.9271264e-06    4.1568937e-06    1.4701387e-06   -4.7212967e-07    1.1167581e-14    9.7729958e-07    8.6885319e-15   -1.9593149e-06    1.0338616e-14    9.5118624e-15   -2.0127872e-07    2.7679835e-06    1.3432214e-06    1.1999303e-14   -5.5417618e-06    4.7212970e-07   -1.4701386e-06    9.5159069e-15    9.7729958e-07    1.0340610e-14    1.1169528e-14    4.8947129e-07    1.3432214e-06    2.0127874e-07   -4.1568937e-06    1.1999761e-14    1.0345367e-14    4.7212970e-07   -9.7729958e-07    1.1171938e-14    4.8947129e-07    2.0127874e-07   -2.7679835e-06   -4.7212967e-07    1.1174066e-14    1.2001392e-14    1.2002555e-14   -2.0127872e-07   -1.3432212e-06   -4.8947129e-07
            </DataArray>
            <DataArray type="Float64" Name="fy" NumberOfComponents="1" format="ascii">
               4.0954105e+01    2.4827029e-11    3.4599888e+01    1.8415824e-14   -4.0954105e+01   -3.4599888e+01    1.2091543e-13    6.4254158e-15    3.5160971e-11   -1.8703789e-14   -4.0954105e+01    1.6915115e-13   -5.0098814e-15   -3.4599888e+01   -4.6480181e-14    5.3360094e-14    1.2240209e-14    3.7609194e-11   -1.7492952e-14    3.8753722e-14    3.4599888e+01    7.6414569e-15   -1.5001889e-14    2.8000269e-11   -1.3457291e-13    3.5391828e-14   -3.1225023e-15    8.5487173e-15   -9.9226183e-16    9.6651853e-14    4.0954105e+01   -9.2439945e-14   -6.6368785e-14    6.1031041e-14    2.6663394e-13    5.4400928e-15   -2.2204460e-16   -1.5404344e-15    2.5326963e-15   -3.3848618e-13    3.6186332e-14    1.1636525e-13   -4.6797635e-14   -3.1225023e-15   -1.2361813e-13    8.1705476e-14   -6.1249616e-14    6.5114580e-14    4.9543702e-13    6.1631256e-14    6.2810174e-13    1.0765694e-13    4.0487058e-13    2.9365399e-14    1.5130033e-12    3.5296419e-14   -1.1251937e-13    1.4948633e-13    1.9950708e-13   -6.4665287e-13    3.7123082e-15   -3.3847924e-14    5.4255211e-14   -1.5063645e-13    3.5023373e-13    5.6353533e-13    4.7666732e-14    4.8621177e-13    2.8531344e-13    5.6704641e-14    1.1440848e-13    1.0941248e-13    2.3911428e-14   -9.9694558e-14    2.1573021e-13    4.1486953e-13   -2.0836111e-13    3.8323511e-14   -4.5703025e-14    2.6874510e-13    1.1145373e-12    1.6349769e-14    2.2783164e-13    7.2719261e-13   -5.5339761e-13    2.5188185e-15   -1.4518942e-13    7.3014511e-13    1.0757367e-13    3.2190223e-13   -5.8760288e-13   -6.9900682e-13    1.6216715e-13   -4.6995220e-13    2.0969337e-13   -3.4888759e-13    9.4791536e-13    7.9875689e-13    3.5322786e-13    5.6505495e-13    6.7014450e-13    7.7015477e-13    2.9438084e-13   -2.3885165e-12    6.1842718e-13   -1.6770613e-13    1.0971501e-12   -3.9776515e-13    9.2873972e-13    1.9464361e-12    1.0557805e-12    2.5835237e-13   -3.2505248e-14    1.6620594e-12   -7.6406416e-13   -7.8567361e-13   -3.6334130e-13    4.7532984e-13    9.2231778e-14   -1.4307375e-12    8.2191198e-15   -2.7794086e-13    3.0610930e-13   -1.3973111e-12    6.6313274e-13    3.4850595e-13   -4.8024432e-13    2.3200296e-12    6.7582571e-13    7.8730772e-13   -1.5286730e-13   -3.2562841e-13    1.3267894e-12    1.2662718e-12    1.4538804e-12   -8.4024454e-13    5.6878113e-14    8.3214685e-13    5.5752451e-13   -4.1152325e-13    1.4015525e-13    4.1825710e-12    2.7149654e-12   -2.3518340e-13   -2.3063843e-13   -1.5520085e-12   -1.4164017e-13    9.4116381e-13   -5.2423343e-13    1.4508741e-12   -3.8056017e-13   -4.9938179e-13   -1.6071866e-12    1.8539857e-13    8.8476448e-13   -9.8026101e-13    2.3431812e-12    9.9908276e-13   -1.6366786e-12    1.8032867e-12   -2.9405159e-12    2.0725088e-13    5.3722703e-12    4.9441354e-14    2.1847801e-13    7.8066026e-13   -7.7502935e-13    1.0015669e-12    3.0132442e-12    1.7933693e-12    4.6583223e-13    4.3760134e-13   -9.3348593e-13   -3.8776621e-13    1.2385769e-12    2.2096387e-12    5.1436841e-12    1.5680669e-12    8.3615406e-14   -3.4085165e-12    1.7999456e-12    3.8887591e-12    2.4836730e-12    1.1050275e-12    2.4544325e-12   -3.6781515e-13   -4.0904762e-12    1.2535216e-12   -5.1333417e-13    9.0532963e-13    4.5914366e-12    2.3894844e-12   -1.0436079e-12   -1.1106532e-12    6.0482175e-13   -1.3848263e-12   -1.3042865e-12    1.0057597e-12   -1.1926501e-12   -6.1660746e-13    4.1845520e-13   -2.4364625e-12   -2.2550017e-13    4.8904318e-12    4.5280828e-12    3.5484029e-12    1.2609148e-12   -1.8693103e-12    3.5213013e-12   -3.4269289e-13    1.4300656e-13   -9.1791331e-13   -3.3842720e-13    1.1128407e-12    2.7010633e-12    5.4841296e-12   -2.9226534e-12   -1.3843007e-13    2.3216394e-12   -1.6689037e-12    4.5863114e-12    2.9655757e-12    1.3765586e-12    2.7580160e-12   -1.1285972e-12    1.1388483e-12   -1.2624589e-12   -2.3064536e-13   -1.2285420e-12   -1.5750214e-12   -3.5105200e-12    4.4981813e-13    5.7091658e-13    1.1561581e-12    5.1579990e-12   -5.9462591e-13   -1.4913192e-12    8.9925832e-13    2.5313744e-12    1.8690084e-12    1.4343735e-12    6.0278232e-12    3.2600309e-13    9.0376231e-13    1.0433130e-12    9.5617698e-13    6.2863430e-13    2.8037581e-12    5.3561235e-13   -2.2463541e-13   -2.3764497e-12    2.6014347e-13
            </DataArray>
            <DataArray type="Float64" Name="uz" NumberOfComponents="1" format="ascii">