<?xml version="1.0"?>
<VTKFile type="UnstructuredGrid" version="0.1" byte_order="LittleEndian">
   <UnstructuredGrid>
      <Piece NumberOfPoints="252" NumberOfCells="120">
         <Points>
            <DataArray type="Float64" NumberOfComponents="3" format="ascii">
               0.0000000e+00     0.0000000e+00     0.0000000e+00
               0.0000000e+00     5.0000000e-02     0.0000000e+00
               0.0000000e+00     0.0000000e+00     3.3333330e-02
               5.0000000e-02     0.0000000e+00     0.0000000e+00
               0.0000000e+00     1.0000000e-01     0.0000000e+00
               0.0000000e+00     0.0000000e+00     6.6666670e-02
               1.0000000e-01     0.0000000e+00     0.0000000e+00
               5.0000000e-02     0.0000000e+00     3.3333330e-02
               0.0000000e+00     5.0000000e-02     3.3333330e-02
               5.0000000e-02     5.0000000e-02     0.0000000e+00
               0.0000000e+00     0.0000000e+00     1.0000000e-01
               1.5000000e-01     0.0000000e+00     0.0000000e+00
               5.0000000e-02     1.0000000e-01     0.0000000e+00
               0.0000000e+00     1.0000000e-01     3.3333330e-02
               1.0000000e-01     5.0000000e-02     0.0000000e+00
               1.0000000e-01     0.0000000e+00     3.3333330e-02
               5.0000000e-02     0.0000000e+00     6.6666670e-02
               0.0000000e+00     5.0000000e-02     6.6666670e-02
               5.0000000e-02     5.0000000e-02     3.3333330e-02
               2.0000000e-01     0.0000000e+00     0.0000000e+00
               0.0000000e+00     1.0000000e-01     6.6666670e-02
               1.0000000e-01     1.0000000e-01     0.0000000e+00
               5.0000000e-02     0.0000000e+00     1.0000000e-01
               0.0000000e+00     5.0000000e-02     1.0000000e-01
               1.5000000e-01     0.0000000e+00     3.3333330e-02
               1.5000000e-01     5.0000000e-02     0.0000000e+00
               5.0000000e-02     1.0000000e-01     3.3333330e-02
               1.0000000e-01     0.0000000e+00     6.6666670e-02
               5.0000000e-02     5.0000000e-02     6.6666670e-02
               1.0000000e-01     5.0000000e-02     3.3333330e-02
               0.0000000e+00     1.0000000e-01     1.0000000e-01
               2.5000000e-01     0.0000000e+00     0.0000000e+00
               1.5000000e-01     1.0000000e-01     0.0000000e+00
               1.0000000e-01     0.0000000e+00     1.0000000e-01
               2.0000000e-01     0.0000000e+00     3.3333330e-02
               1.5000000e-01     0.0000000e+00     6.6666670e-02
               1.0000000e-01     1.0000000e-01     3.3333330e-02
               5.0000000e-02     5.0000000e-02     1.0000000e-01
               5.0000000e-02     1.0000000e-01     6.6666670e-02
               2.0000000e-01     5.0000000e-02     0.0000000e+00
               1.5000000e-01     5.0000000e-02     3.3333330e-02
               1.0000000e-01     5.0000000e-02     6.6666670e-02
               2.0000000e-01     1.0000000e-01     0.0000000e+00
               5.0000000e-02     1.0000000e-01     1.0000000e-01
               3.0000000e-01     0.0000000e+00     0.0000000e+00
               1.5000000e-01     0.0000000e+00     1.0000000e-01
               1.0000000e-01     5.0000000e-02     1.0000000e-01
               1.0000000e-01     1.0000000e-01     6.6666670e-02
               2.5000000e-01     0.0000000e+00     3.3333330e-02
               1.5000000e-01     1.0000000e-01     3.3333330e-02
               2.5000000e-01     5.0000000e-02     0.0000000e+00
               2.0000000e-01     0.0000000e+00     6.6666670e-02
               2.0000000e-01     5.0000000e-02     3.3333330e-02
               1.5000000e-01     5.0000000e-02     6.6666670e-02
               3.5000000e-01     0.0000000e+00     0.0000000e+00
               1.0000000e-01     1.0000000e-01     1.0000000e-01
               2.5000000e-01     1.0000000e-01     0.0000000e+00
               2.0000000e-01     0.0000000e+00     1.0000000e-01
               2.0000000e-01     1.0000000e-01     3.3333330e-02
               3.0000000e-01     5.0000000e-02     0.0000000e+00
               1.5000000e-01     5.0000000e-02     1.0000000e-01
               1.5000000e-01     1.0000000e-01     6.6666670e-02
               3.0000000e-01     0.0000000e+00     3.3333330e-02
               2.5000000e-01     0.0000000e+00     6.6666670e-02
               2.5000000e-01     5.0000000e-02     3.3333330e-02
               2.0000000e-01     5.0000000e-02     6.6666670e-02
               2.5000000e-01     0.0000000e+00     1.0000000e-01
               3.0000000e-01     1.0000000e-01     0.0000000e+00
               4.0000000e-01     0.0000000e+00     0.0000000e+00
               1.5000000e-01     1.0000000e-01     1.0000000e-01
               3.0000000e-01     0.0000000e+00     6.6666670e-02
               2.0000000e-01     1.0000000e-01     6.6666670e-02
               2.5000000e-01     1.0000000e-01     3.3333330e-02
               2.0000000e-01     5.0000000e-02     1.0000000e-01
               3.5000000e-01     5.0000000e-02     0.0000000e+00
               3.5000000e-01     0.0000000e+00     3.3333330e-02
               2.5000000e-01     5.0000000e-02     6.6666670e-02
               3.0000000e-01     5.0000000e-02     3.3333330e-02
               3.0000000e-01     0.0000000e+00     1.0000000e-01
               3.5000000e-01     1.0000000e-01     0.0000000e+00
               4.5000000e-01     0.0000000e+00     0.0000000e+00
               2.0000000e-01     1.0000000e-01     1.0000000e-01
               4.0000000e-01     0.0000000e+00     3.3333330e-02
               4.0000000e-01     5.0000000e-02     0.0000000e+00
               3.0000000e-01     1.0000000e-01     3.3333330e-02
               2.5000000e-01     5.0000000e-02     1.0000000e-01
               2.5000000e-01     1.0000000e-01     6.6666670e-02
               3.5000000e-01     0.0000000e+00     6.6666670e-02
               3.0000000e-01     5.0000000e-02     6.6666670e-02
               3.5000000e-01     5.0000000e-02     3.3333330e-02
               3.5000000e-01     0.0000000e+00     1.0000000e-01
               5.0000000e-01     0.0000000e+00     0.0000000e+00
               2.5000000e-01     1.0000000e-01     1.0000000e-01
               4.0000000e-01     1.0000000e-01     0.0000000e+00
               3.0000000e-01     1.0000000e-01     6.6666670e-02
               4.0000000e-01     0.0000000e+00     6.6666670e-02
               4.5000000e-01     5.0000000e-02     0.0000000e+00
               4.5000000e-01     0.0000000e+00     3.3333330e-02
               3.0000000e-01     5.0000000e-02     1.0000000e-01
               3.5000000e-01     1.0000000e-01     3.3333330e-02
               3.5000000e-01     5.0000000e-02     6.6666670e-02
               4.0000000e-01     5.0000000e-02     3.3333330e-02
               4.5000000e-01     1.0000000e-01     0.0000000e+00
               5.5000000e-01     0.0000000e+00     0.0000000e+00
               4.0000000e-01     0.0000000e+00     1.0000000e-01
               3.0000000e-01     1.0000000e-01     1.0000000e-01
               3.5000000e-01     1.0000000e-01     6.6666670e-02
               4.0000000e-01     1.0000000e-01     3.3333330e-02
               5.0000000e-01     5.0000000e-02     0.0000000e+00
               4.5000000e-01     0.0000000e+00     6.6666670e-02
               5.0000000e-01     0.0000000e+00     3.3333330e-02
               3.5000000e-01     5.0000000e-02     1.0000000e-01
               4.5000000e-01     5.0000000e-02     3.3333330e-02
               4.0000000e-01     5.0000000e-02     6.6666670e-02
               4.5000000e-01     0.0000000e+00     1.0000000e-01
               5.0000000e-01     1.0000000e-01     0.0000000e+00
               3.5000000e-01     1.0000000e-01     1.0000000e-01
               6.0000000e-01     0.0000000e+00     0.0000000e+00
               4.0000000e-01     1.0000000e-01     6.6666670e-02
               5.5000000e-01     0.0000000e+00     3.3333330e-02
               5.0000000e-01     0.0000000e+00     6.6666670e-02
               4.0000000e-01     5.0000000e-02     1.0000000e-01
               4.5000000e-01     1.0000000e-01     3.3333330e-02
               5.5000000e-01     5.0000000e-02     0.0000000e+00
               5.0000000e-01     5.0000000e-02     3.3333330e-02
               4.5000000e-01     5.0000000e-02     6.6666670e-02
               5.0000000e-01     0.0000000e+00     1.0000000e-01
               6.5000000e-01     0.0000000e+00     0.0000000e+00
               5.5000000e-01     1.0000000e-01     0.0000000e+00
               4.0000000e-01     1.0000000e-01     1.0000000e-01
               4.5000000e-01     5.0000000e-02     1.0000000e-01
               4.5000000e-01     1.0000000e-01     6.6666670e-02
               5.5000000e-01     0.0000000e+00     6.6666670e-02
               6.0000000e-01     0.0000000e+00     3.3333330e-02
               6.0000000e-01     5.0000000e-02     0.0000000e+00
               5.0000000e-01     1.0000000e-01     3.3333330e-02
               5.5000000e-01     5.0000000e-02     3.3333330e-02
               5.0000000e-01     5.0000000e-02     6.6666670e-02
               6.0000000e-01     1.0000000e-01     0.0000000e+00
               5.5000000e-01     0.0000000e+00     1.0000000e-01
               4.5000000e-01     1.0000000e-01     1.0000000e-01
               7.0000000e-01     0.0000000e+00     0.0000000e+00
               6.5000000e-01     5.0000000e-02     0.0000000e+00
               5.0000000e-01     1.0000000e-01     6.6666670e-02
               5.0000000e-01     5.0000000e-02     1.0000000e-01
               5.5000000e-01     1.0000000e-01     3.3333330e-02
               6.5000000e-01     0.0000000e+00     3.3333330e-02
               6.0000000e-01     0.0000000e+00     6.6666670e-02
               5.5000000e-01     5.0000000e-02     6.6666670e-02
[...]
         <PointData>
            <DataArray type="Int32" Name="node-id" NumberOfComponents="1" format="ascii">
               1  2  3  4  5  6  7  8  9  10  11  12  13  14  15  16  17  18  19  20  21  22  23  24  25  26  27  28  29  30  31  32  33  34  35  36  37  38  39  40  41  42  43  44  45  46  47  48  49  50  51  52  53  54  55  56  57  58  59  60  61  62  63  64  65  66  67  68  69  70  71  72  73  74  75  76  77  78  79  80  81  82  83  84  85  86  87  88  89  90  91  92  93  94  95  96  97  98  99  100  101  102  103  104  105  106  107  108  109  110  111  112  113  114  115  116  117  118  119  120  121  122  123  124  125  126  127  128  129  130  131  132  133  134  135  136  137  138  139  140  141  142  143  144  145  146  147  148  149  150  151  152  153  154  155  156  157  158  159  160  161  162  163  164  165  166  167  168  169  170  171  172  173  174  175  176  177  178  179  180  181  182  183  184  185  186  187  188  189  190  191  192  193  194  195  196  197  198  199  200  201  202  203  204  205  206  207  208  209  210  211  212  213  214  215  216  217  218  219  220  221  222  223  224  225  226  227  228  229  230  231  232  233  234  235  236  237  238  239  240  241  242  243  244  245  246  247  248  249  250  251  252  
            </DataArray>
            <DataArray type="Float64" Name="ux" NumberOfComponents="1" format="ascii">
               0.0000000e+00    0.0000000e+00    0.0000000e+00   -3.2747013e-04    0.0000000e+00    0.0000000e+00   -7.2698563e-04   -1.0866635e-04    0.0000000e+00   -3.0459045e-04    0.0000000e+00   -1.0783595e-03   -3.2747013e-04    0.0000000e+00   -7.3212874e-04   -2.4333423e-04    1.0866635e-04    0.0000000e+00   -9.9575336e-05   -1.3470650e-03    0.0000000e+00   -7.2698563e-04    3.2747013e-04    0.0000000e+00   -3.5916385e-04   -1.0906584e-03   -1.0866635e-04    2.4333423e-04    9.9575336e-05   -2.4464302e-04    0.0000000e+00   -1.5525528e-03   -1.0783595e-03    7.2698563e-04   -4.4712372e-04    3.5916385e-04   -2.4333423e-04    3.0459045e-04    1.0866635e-04   -1.3541738e-03   -3.6350661e-04    2.4464302e-04   -1.3470650e-03    3.2747013e-04   -1.7239093e-03    1.0783595e-03    7.3212874e-04    2.4333423e-04   -5.1498396e-04   -3.5916385e-04   -1.5563212e-03    4.4712372e-04   -4.5055820e-04    3.6350661e-04   -1.8694481e-03    7.2698563e-04   -1.5525528e-03    1.3470650e-03   -4.4712372e-04   -1.7261436e-03    1.0906584e-03    3.5916385e-04   -5.7240628e-04    5.1498396e-04   -5.1715004e-04    4.5055820e-04    1.5525528e-03   -1.7239093e-03   -2.0027563e-03    1.0783595e-03    5.7240628e-04    4.4712372e-04   -5.1498396e-04    1.3541738e-03   -1.8703762e-03   -6.2192616e-04    5.1715004e-04   -5.7363574e-04    1.7239093e-03   -1.8694481e-03   -2.1251456e-03    1.3470650e-03   -6.6633913e-04   -2.0032406e-03   -5.7240628e-04    1.5563212e-03    5.1498396e-04    6.2192616e-04    5.7363574e-04   -6.2254723e-04    1.8694481e-03   -2.2369144e-03    1.5525528e-03   -2.0027563e-03    5.7240628e-04    6.6633913e-04   -2.1256623e-03   -7.0715195e-04    1.7261436e-03   -6.2192616e-04    6.2254723e-04   -6.6665589e-04   -2.1251456e-03   -2.3380376e-03    2.0027563e-03    1.7239093e-03    6.2192616e-04   -6.6633913e-04   -2.2374317e-03    7.0715195e-04   -7.4440351e-04    1.8703762e-03   -7.0747262e-04    6.6665589e-04    2.1251456e-03   -2.2369144e-03    1.8694481e-03   -2.4285167e-03    6.6633913e-04   -7.7811221e-04    7.4440351e-04    2.0032406e-03   -7.0715195e-04   -2.3385554e-03   -7.4473117e-04    7.0747262e-04    2.2369144e-03   -2.5083511e-03   -2.3380376e-03    2.0027563e-03    2.1256623e-03    7.0715195e-04    7.7811221e-04   -8.0827181e-04   -2.4290343e-03   -7.4440351e-04   -7.7843829e-04    7.4473117e-04   -2.4285167e-03    2.3380376e-03    2.1251456e-03   -2.5775412e-03   -2.5088687e-03    7.4440351e-04    2.2374317e-03   -7.7811221e-04   -8.3488331e-04    8.0827181e-04    7.7843829e-04   -8.0859812e-04   -2.5083511e-03   -2.6360862e-03    2.2369144e-03    2.4285167e-03   -8.5794658e-04    7.7811221e-04   -2.5780585e-03   -8.0827181e-04    2.3385554e-03    8.3488331e-04    8.0859812e-04   -8.3520956e-04   -2.6839869e-03    2.5083511e-03   -2.5775412e-03    2.3380376e-03   -8.7746163e-04    2.4290343e-03    8.5794658e-04   -2.6366038e-03   -8.3488331e-04    8.0827181e-04   -8.5827283e-04    8.3520956e-04   -2.6360862e-03    2.5775412e-03   -2.7212433e-03    2.4285167e-03    2.5088687e-03    8.3488331e-04   -8.9342875e-04   -2.6845043e-03   -8.5794658e-04    8.7746163e-04    8.5827283e-04   -8.7778794e-04   -2.7478449e-03   -2.6839869e-03    2.5083511e-03    2.6360862e-03   -9.0584642e-04   -8.7746163e-04   -2.7217607e-03    2.5780585e-03    8.9342875e-04    8.5794658e-04    8.7778794e-04   -8.9375471e-04   -2.7638820e-03   -2.7212433e-03    2.6839869e-03    2.5775412e-03   -8.9342875e-04    8.7746163e-04   -9.1471581e-04   -2.7483809e-03    9.0584642e-04    2.6366038e-03    8.9375471e-04   -9.0617401e-04   -2.7693631e-03   -2.7478449e-03    2.6360862e-03    2.7212433e-03   -9.0584642e-04   -9.2006795e-04   -2.7642630e-03    9.1471581e-04    2.6845043e-03    8.9342875e-04   -9.1504725e-04    9.0617401e-04   -9.2190673e-04    2.7478449e-03   -2.7638820e-03   -2.7695701e-03    2.6839869e-03    9.2006795e-04    9.0584642e-04    2.7217607e-03   -9.1471581e-04    9.1504725e-04   -9.2032930e-04   -2.7693631e-03    2.7638820e-03    9.2190673e-04    2.7212433e-03   -9.2209614e-04    2.7483809e-03   -9.2006795e-04    9.1471581e-04    9.2032930e-04    2.7693631e-03   -9.2190673e-04    2.7478449e-03    9.2006795e-04    2.7642630e-03    9.2209614e-04    2.7695701e-03    9.2190673e-04    2.7638820e-03    2.7693631e-03
            </DataArray>
            <DataArray type="Float64" Name="fx" NumberOfComponents="1" format="ascii">
               3.2096408e+02    5.8751428e+02    2.7964221e+02   -2.0228669e-03    3.2096408e+02   -2.7964221e+02   -1.3119911e-03    1.6315191e-03    4.9158081e+02   -1.7035843e-03   -3.2096408e+02    4.7527810e-04   -2.0228669e-03    2.7964221e+02   -2.9578398e-03    1.1934475e-03   -1.6315191e-03   -4.9158081e+02    2.8644968e-03    5.4680556e-04   -2.7964221e+02   -1.3119911e-03    2.0228669e-03   -5.8751428e+02   -2.4098580e-04    6.4484857e-04    1.6315191e-03   -1.1934475e-03   -2.8644968e-03    3.0389600e-03   -3.2096408e+02    7.9699865e-05    4.7527810e-04    1.3119911e-03   -2.8415080e-04    2.4098580e-04    1.1934475e-03    1.7035843e-03   -1.6315191e-03    5.8186398e-04   -2.0696246e-03   -3.0389600e-03    5.4680556e-04    2.0228669e-03    2.6130938e-06   -4.7527810e-04    2.9578398e-03   -1.1934475e-03   -4.6367131e-05   -2.4098580e-04    4.0628831e-05    2.8415080e-04   -1.3463844e-03    2.0696246e-03    5.1865619e-08    1.3119911e-03    7.9699865e-05   -5.4680556e-04   -2.8415080e-04   -9.6914910e-06   -6.4484857e-04    2.4098580e-04    9.5416647e-07    4.6367131e-05   -1.2199194e-04    1.3463844e-03   -7.9699865e-05    2.6130936e-06    4.2188475e-14   -4.7527810e-04   -9.5416647e-07    2.8415080e-04   -4.6367131e-05   -5.8186398e-04   -4.5409223e-08   -3.6705888e-08    1.2199194e-04    2.4444552e-07   -2.6130936e-06    5.1865623e-08    1.4432899e-15   -5.4680556e-04   -1.1768364e-14    9.6034292e-14    9.5416647e-07   -4.0628831e-05    4.6367131e-05    3.6705842e-08   -2.4444549e-07   -2.2351680e-08   -5.1865563e-08   -2.8310687e-14   -7.9699865e-05    6.3948846e-14   -9.5416647e-07    1.5931700e-14   -2.9864999e-14   -6.4948047e-15    9.6914910e-06   -3.6705821e-08    2.2351680e-08   -6.8334227e-14   -4.8072657e-14   -3.9968029e-15   -1.5876189e-14   -2.6130936e-06    3.6705877e-08   -1.1379786e-14   -3.6970427e-14   -2.3037128e-14    1.0269563e-14    4.5409251e-08   -5.6621374e-15   -3.5527137e-14   -5.6621374e-15    3.4638958e-14   -5.1865655e-08   -2.3647750e-14   -4.6018744e-14    3.7775338e-14   -2.5368596e-14   -6.7723605e-15   -1.2656542e-14    4.0856207e-14   -5.2069460e-14   -1.9984014e-14    4.1966430e-14   -5.3290705e-14   -4.9960036e-15   -1.0547119e-14    2.6756375e-14   -7.9936058e-15   -7.0055073e-14    1.0011436e-13   -4.8294702e-14   -4.0245585e-14    7.0082828e-14    6.2339023e-14   -4.3187676e-14   -3.5527137e-14   -1.4321877e-14    5.7231997e-14   -8.0713214e-14    5.3235194e-14    8.1046281e-14    1.5210055e-14   -2.6423308e-14    6.9944051e-14   -5.1625371e-14    1.7652546e-14    4.0190073e-14    8.9483976e-14    5.2846616e-14    1.8873791e-14   -4.9432680e-14   -4.9682480e-14   -1.7263968e-14    4.5241588e-14   -4.7628568e-14    1.6042723e-14    6.3560268e-14   -1.0547119e-14   -5.0792703e-14   -9.4368957e-15   -2.1760371e-14   -6.1617378e-14   -1.3600232e-13    3.4194869e-14    8.1518126e-14    1.1146639e-13   -5.0848215e-14    1.1679546e-13   -5.4400928e-15   -5.7676086e-14    1.1585177e-13    1.5487611e-14   -7.1165296e-14    1.6653345e-14    2.2315483e-14    3.1752379e-14   -8.3349994e-14   -1.5987212e-13   -6.2422290e-14   -5.6343818e-14    1.2220780e-13    4.0772941e-14   -3.0447866e-14   -4.7073456e-14   -3.7192471e-14    1.3877788e-15    1.0932921e-13    4.4325654e-14   -1.5540347e-13   -3.2251979e-14   -7.9769524e-14   -3.0808689e-14    1.2129187e-14   -2.0025648e-13    1.1554646e-13    4.6629367e-15    8.0435658e-14   -5.5122573e-14    3.4416914e-14   -6.1506356e-14    6.9402817e-14    7.3163697e-14    4.7323256e-14   -7.1886941e-14    1.2875812e-13   -4.7184479e-14    2.0961097e-14   -5.9952043e-15    4.3853809e-14   -6.5142336e-14   -9.6311847e-15   -1.5148993e-13   -3.6498582e-15    1.2041756e-13    9.5146113e-14    1.5863699e-13    2.3549218e-13    1.3409412e-13   -3.9322712e-14   -1.1521339e-13   -4.7989390e-14    8.7454783e-14   -3.2862602e-14   -8.8724167e-14    5.5427885e-14   -6.5919492e-14    4.9821258e-15    1.4583820e-13    1.3017365e-14   -6.3803129e-15    5.0376370e-14    2.4202862e-14   -5.9618976e-14   -2.2981617e-14   -1.2850832e-13    4.6407322e-14    1.7295193e-14   -1.1944959e-13    6.4769479e-14    7.9512785e-14   -1.1016188e-13   -5.5691562e-14   -1.7541524e-14   -1.7695567e-13    1.4954027e-13   -3.2085445e-14   -6.4032113e-14    3.5343256e-14
            </DataArray>
            <DataArray type="Float64" Name="uy" NumberOfComponents="1" format="ascii">
               0.0000000e+00    0.0000000e+00    0.0000000e+00   -1.4462550e-04    0.0000000e+00    0.0000000e+00   -1.5073677e-04   -3.4877608e-05    0.0000000e+00    1.6175946e-19    0.0000000e+00   -1.0556271e-04    1.4462550e-04    0.0000000e+00    8.5748458e-19   -3.7150701e-05    3.4877608e-05    0.0000000e+00    1.0837031e-19   -6.6042085e-05    0.0000000e+00    1.5073677e-04    1.4462550e-04    0.0000000e+00   -2.7565246e-05    1.7329050e-18    3.4877608e-05    3.7150701e-05   -1.5596603e-21    6.1615484e-19    0.0000000e+00   -4.4599041e-05    1.0556271e-04    1.5073677e-04   -1.8100520e-05    2.7565246e-05    3.7150701e-05   -1.6237888e-19   -3.4877608e-05    2.8811425e-18    1.4091286e-18    3.4452388e-19    6.6042085e-05   -1.4462550e-04   -3.2032887e-05    1.0556271e-04   -8.8815634e-21   -3.7150701e-05   -1.3235963e-05    2.7565246e-05    4.0045513e-18    1.8100520e-05    2.3987334e-18    1.0122087e-18   -2.5483598e-05   -1.5073677e-04    4.4599041e-05    6.6042085e-05    1.8100520e-05    5.3671875e-18    5.4288236e-19   -2.7565246e-05   -1.0679033e-05    1.3235963e-05    3.4792792e-18    1.9173360e-18    4.4599041e-05    3.2032887e-05   -2.3630788e-05   -1.0556271e-04    1.0679033e-05   -1.8100520e-05    1.3235963e-05    1.4488601e-18    6.7109841e-18   -9.0983967e-06    2.9208601e-18    4.6057780e-18    3.2032887e-05    2.5483598e-05   -2.1664266e-05   -6.6042085e-05   -8.3248560e-06    7.8482433e-18    1.0679033e-05    2.3834295e-18   -1.3235963e-05    9.0983967e-06    3.8272071e-18    5.6805313e-18    2.5483598e-05   -1.9697512e-05   -4.4599041e-05    2.3630788e-05   -1.0679033e-05    8.3248560e-06    8.9343613e-18   -7.6662745e-06    3.1570951e-18    9.0983967e-06    4.8326642e-18    6.8122923e-18    2.1664266e-05   -1.7726605e-05    2.3630788e-05   -3.2032887e-05   -9.0983967e-06    8.3248560e-06    1.0011887e-17    7.6662745e-06   -6.9631960e-06    4.0042908e-18    7.8458420e-18    5.7541318e-18    2.1664266e-05    1.9697512e-05   -2.5483598e-05   -1.5757196e-05   -8.3248560e-06   -6.2676977e-06    6.9631960e-06    4.8687512e-18    7.6662745e-06    1.0721948e-17    8.7872918e-18    6.7379502e-18    1.9697512e-05   -1.3787519e-05    1.7726605e-05   -2.3630788e-05    5.6189366e-18   -7.6662745e-06    6.2676977e-06   -5.5711625e-06    1.1493645e-17    6.9631960e-06    9.8279951e-18    7.7883621e-18    1.5757196e-05    1.7726605e-05   -2.1664266e-05   -1.1817880e-05    1.1242107e-17   -6.9631960e-06    6.4994298e-18    6.2676977e-06   -4.8747893e-06    5.5711625e-06    8.7291080e-18    1.0534258e-17    1.3787519e-05   -9.8482005e-06   -1.9697512e-05    1.5757196e-05   -4.1783874e-06   -6.2676977e-06    1.2298376e-17    5.5711625e-06    7.8010411e-18    4.8747893e-06    9.8341038e-18    1.1199408e-17   -7.8786470e-06    1.3787519e-05    1.1817880e-05   -1.7726605e-05   -3.4819873e-06    8.9837654e-18    4.1783874e-06    1.3736417e-17    4.8747893e-06   -5.5711625e-06    1.2053156e-17    1.0896095e-17    9.8482005e-06    1.1817880e-05   -5.9097993e-06   -1.5757196e-05    1.0939702e-17   -4.8747893e-06   -2.7855313e-06    1.4893470e-17    4.1783874e-06    3.4819873e-06    1.1910188e-17    1.3141586e-17   -3.9352044e-06    7.8786470e-06   -1.3787519e-05    9.8482005e-06   -2.0900761e-06    3.4819873e-06    1.5426238e-17    1.1482736e-17    2.7855313e-06   -4.1783874e-06    1.2549644e-17    1.3786517e-17   -1.9096392e-06    5.9097993e-06    7.8786470e-06   -1.1817880e-05    2.7855313e-06   -3.4819873e-06   -1.3894135e-06    1.6143058e-17    2.0900761e-06    1.1682800e-17    1.3357701e-17    1.4713237e-17   -6.9587463e-07    3.9352044e-06   -9.8482005e-06    5.9097993e-06    2.0900761e-06   -6.7122033e-07    1.6293739e-17    1.3894135e-06    1.2937481e-17   -2.7855313e-06    1.5814994e-17    1.4379650e-17   -2.8615523e-07    3.9352044e-06    1.9096392e-06    1.7487455e-17   -7.8786470e-06    6.7122033e-07   -2.0900761e-06    1.4206030e-17    1.3894135e-06    1.5214345e-17    1.6552834e-17    6.9587463e-07    1.9096392e-06    2.8615523e-07   -5.9097993e-06    1.7241285e-17    1.4712403e-17    6.7122033e-07   -1.3894135e-06    1.6522615e-17    6.9587463e-07    2.8615523e-07   -3.9352044e-06   -6.7122033e-07    1.6106575e-17    1.7372566e-17    1.6799188e-17   -2.8615523e-07   -1.9096392e-06   -6.9587463e-07
            </DataArray>
            <DataArray type="Float64" Name="fy" NumberOfComponents="1" format="ascii">
               1.1036400e+02   -6.8722805e-14    8.9157440e+01    2.4870525e-03   -1.1036400e+02   -8.9157440e+01    4.7579315e-03   -3.0690602e-03   -9.9795172e-14   -1.0258114e-13   -1.1036400e+02    3.1170819e-03   -2.4870525e-03   -8.9157440e+01    4.5692616e-14   -3.1861628e-03    3.0690602e-03    1.9984014e-13   -6.9395184e-13    4.2415422e-04    8.9157440e+01   -4.7579315e-03   -2.4870525e-03    2.9676261e-13   -2.8522338e-03   -3.7574110e-15    3.0690602e-03    3.1861628e-03   -7.0042583e-13   -2.7800678e-13    1.1036400e+02    5.1406507e-05   -3.1170819e-03   -4.7579315e-03   -8.5257820e-04    2.8522338e-03    3.1861628e-03   -1.0021844e-13   -3.0690602e-03    4.4558107e-14   -2.0806273e-13   -2.5518476e-13   -4.2415422e-04    2.4870525e-03    1.0826320e-05   -3.1170819e-03    3.8156978e-14   -3.1861628e-03   -2.4143152e-05    2.8522338e-03    5.8553856e-14    8.5257820e-04   -1.9824420e-14   -2.1456101e-13    6.3169404e-07    4.7579315e-03   -5.1406507e-05   -4.2415422e-04    8.5257820e-04    9.5409791e-17   -1.6431301e-14   -2.8522338e-03   -1.9739216e-06    2.4143152e-05   -2.4300006e-14   -2.5618396e-14   -5.1406507e-05   -1.0826320e-05   -2.0398613e-14    3.1170819e-03    1.9739216e-06   -8.5257820e-04    2.4143152e-05    4.6327525e-14   -1.9007365e-14   -1.9123925e-07   -1.9678703e-14   -5.2083338e-14   -1.0826320e-05   -6.3169398e-07    3.8594995e-14    4.2415422e-04   -1.5897006e-14   -5.5466048e-14    1.9739216e-06    1.3020834e-14   -2.4143152e-05    1.9123924e-07    1.8781851e-14    5.2034765e-14   -6.3169404e-07   -3.0651696e-14    5.1406507e-05    1.8836495e-14   -1.9739216e-06    8.7863744e-14   -1.9382933e-14    3.8007791e-14    2.9389685e-14    1.9123922e-07    3.9990580e-14    2.7915170e-14   -3.5120344e-14   -3.9001788e-14   -6.8872859e-15    1.0826320e-05   -1.9123924e-07    1.6143337e-14   -3.9039952e-15    2.5812685e-14    2.1203525e-14   -5.2725185e-14    1.7173762e-15    9.6922470e-14   -7.2445522e-14    8.6736174e-16    6.3169398e-07   -3.4454210e-14   -1.8134799e-14   -3.5305092e-14    2.8158031e-14   -1.3727127e-13    3.8458819e-14   -1.3284773e-13    2.8487629e-14    4.3784421e-15   -4.3224105e-14   -7.3156758e-14    5.0407595e-14    2.0033888e-15   -9.1775545e-14    6.3790986e-14    2.4953997e-14   -1.9857380e-14   -2.4116126e-14    2.8801614e-14   -1.2622542e-13   -8.1479962e-15    2.0754232e-14    4.5039493e-14    2.5500435e-14   -7.6848250e-16    3.0409703e-15    1.3877788e-17    1.4276774e-14    1.9359514e-13    8.6352800e-14    1.0380932e-13   -3.6545419e-14   -3.8722497e-14    7.4623467e-14   -1.7010959e-13   -3.3026533e-14    3.9842261e-14   -7.6105788e-14   -4.3643908e-14   -7.8421644e-14   -3.7900239e-14    9.6415931e-14   -4.0813707e-14    1.2321741e-14   -1.2553413e-13   -8.7147303e-14    8.4345725e-14    2.8331330e-13   -2.3201926e-14   -1.8115717e-14    4.0509263e-14    5.5155533e-14   -8.1788742e-14    7.7469281e-14   -4.1914389e-14   -2.4674447e-13    1.1820406e-14    2.2966611e-13    9.8316320e-14   -1.6003865e-13    2.5630539e-15    7.0256301e-16    1.5628991e-14    4.0856207e-14   -1.1693771e-13   -3.3834047e-14    2.3653909e-13    1.1000575e-13    9.3695017e-14   -3.7365076e-14   -1.8871796e-13   -1.3683759e-13    1.1576243e-13   -1.1654046e-13   -1.4640199e-14   -1.2130965e-13   -2.1271179e-14    1.1549702e-13   -7.0596307e-14    2.7816291e-15    2.6993338e-13   -2.8127674e-14    2.7125004e-14   -1.0369310e-13   -1.6727938e-14    2.9558821e-14   -1.7460209e-13   -1.0078006e-13    1.7945628e-13   -9.5177230e-14   -1.3724872e-13    8.3154837e-14    5.1759421e-13   -6.5966208e-14    1.6234670e-13   -1.0381279e-13    1.3550792e-14   -4.7965104e-14    1.5372122e-13    2.8092112e-14    1.6982683e-13   -9.5088000e-14    1.6904273e-13   -7.3336736e-14    2.0345791e-13   -2.3711502e-14   -1.7748823e-14    5.6748876e-14    3.3926692e-14   -8.0710612e-14    1.9750694e-14   -5.5830449e-14   -4.8685882e-14    1.3541251e-14   -1.7590638e-13   -5.5638870e-14    1.8542242e-14   -1.2055548e-13   -1.6034483e-14   -1.2634425e-13    1.7677374e-14    4.8955631e-14    2.6535631e-14   -3.7916935e-14   -2.2063948e-14    1.2042234e-14    8.4842289e-14   -1.2439615e-13   -8.8960089e-14    9.0916857e-14   -8.6085964e-14    8.8443142e-14   -1.5603881e-13   -2.7863128e-14    6.1917593e-14
            </DataArray>
            <DataArray type="Float64" Name="uz" NumberOfComponents="1" format="ascii">