<?xml version="1.0"?>
<VTKFile type="UnstructuredGrid" version="0.1" byte_order="LittleEndian">
   <UnstructuredGrid>
      <Piece NumberOfPoints="252" NumberOfCells="120">
         <Points>
            <DataArray type="Float64" NumberOfComponents="3" format="ascii">
               0.0000000e+00     0.0000000e+00     0.0000000e+00
               0.0000000e+00     5.0000000e-02     0.0000000e+00
               0.0000000e+00     0.0000000e+00     3.3333330e-02
               5.0000000e-02     0.0000000e+00     0.0000000e+00
               0.0000000e+00     1.0000000e-01     0.0000000e+00
               0.0000000e+00     0.0000000e+00     6.6666670e-02
               1.0000000e-01     0.0000000e+00     0.0000000e+00
               5.0000000e-02     0.0000000e+00     3.3333330e-02
               0.0000000e+00     5.0000000e-02     3.3333330e-02
               5.0000000e-02     5.0000000e-02     0.0000000e+00
               0.0000000e+00     0.0000000e+00     1.0000000e-01
               1.5000000e-01     0.0000000e+00     0.0000000e+00
               5.0000000e-02     1.0000000e-01     0.0000000e+00
               0.0000000e+00     1.0000000e-01     3.3333330e-02
               1.0000000e-01     5.0000000e-02     0.0000000e+00
               1.0000000e-01     0.0000000e+00     3.3333330e-02
               5.0000000e-02     0.0000000e+00     6.6666670e-02
               0.0000000e+00     5.0000000e-02     6.6666670e-02
               5.0000000e-02     5.0000000e-02     3.3333330e-02
               2.0000000e-01     0.0000000e+00     0.0000000e+00
               0.0000000e+00     1.0000000e-01     6.6666670e-02
               1.0000000e-01     1.0000000e-01     0.0000000e+00
               5.0000000e-02     0.0000000e+00     1.0000000e-01
               0.0000000e+00     5.0000000e-02     1.0000000e-01
               1.5000000e-01     0.0000000e+00     3.3333330e-02
               1.5000000e-01     5.0000000e-02     0.0000000e+00
               5.0000000e-02     1.0000000e-01     3.3333330e-02
               1.0000000e-01     0.0000000e+00     6.6666670e-02
               5.0000000e-02     5.0000000e-02     6.6666670e-02
               1.0000000e-01     5.0000000e-02     3.3333330e-02
               0.0000000e+00     1.0000000e-01     1.0000000e-01
               2.5000000e-01     0.0000000e+00     0.0000000e+00
               1.5000000e-01     1.0000000e-01     0.0000000e+00
               1.0000000e-01     0.0000000e+00     1.0000000e-01
               2.0000000e-01     0.0000000e+00     3.3333330e-02
               1.5000000e-01     0.0000000e+00     6.6666670e-02
               1.0000000e-01     1.0000000e-01     3.3333330e-02
               5.0000000e-02     5.0000000e-02     1.0000000e-01
               5.0000000e-02     1.0000000e-01     6.6666670e-02
               2.0000000e-01     5.0000000e-02     0.0000000e+00
               1.5000000e-01     5.0000000e-02     3.3333330e-02
               1.0000000e-01     5.0000000e-02     6.6666670e-02
               2.0000000e-01     1.0000000e-01     0.0000000e+00
               5.0000000e-02     1.0000000e-01     1.0000000e-01
               3.0000000e-01     0.0000000e+00     0.0000000e+00
               1.5000000e-01     0.0000000e+00     1.0000000e-01
               1.0000000e-01     5.0000000e-02     1.0000000e-01
               1.0000000e-01     1.0000000e-01     6.6666670e-02
               2.5000000e-01     0.0000000e+00     3.3333330e-02
               1.5000000e-01     1.0000000e-01     3.3333330e-02
               2.5000000e-01     5.0000000e-02     0.0000000e+00
               2.0000000e-01     0.0000000e+00     6.6666670e-02
               2.0000000e-01     5.0000000e-02     3.3333330e-02
               1.5000000e-01     5.0000000e-02     6.6666670e-02
               3.5000000e-01     0.0000000e+00     0.0000000e+00
               1.0000000e-01     1.0000000e-01     1.0000000e-01
               2.5000000e-01     1.0000000e-01     0.0000000e+00
               2.0000000e-01     0.0000000e+00     1.0000000e-01
               2.0000000e-01     1.0000000e-01     3.3333330e-02
               3.0000000e-01     5.0000000e-02     0.0000000e+00
               1.5000000e-01     5.0000000e-02     1.0000000e-01
               1.5000000e-01     1.0000000e-01     6.6666670e-02
               3.0000000e-01     0.0000000e+00     3.3333330e-02
               2.5000000e-01     0.0000000e+00     6.6666670e-02
               2.5000000e-01     5.0000000e-02     3.3333330e-02
               2.0000000e-01     5.0000000e-02     6.6666670e-02
               2.5000000e-01     0.0000000e+00     1.0000000e-01
               3.0000000e-01     1.0000000e-01     0.0000000e+00
               4.0000000e-01     0.0000000e+00     0.0000000e+00
               1.5000000e-01     1.0000000e-01     1.0000000e-01
               3.0000000e-01     0.0000000e+00     6.6666670e-02
               2.0000000e-01     1.0000000e-01     6.6666670e-02
               2.5000000e-01     1.0000000e-01     3.3333330e-02
               2.0000000e-01     5.0000000e-02     1.0000000e-01
               3.5000000e-01     5.0000000e-02     0.0000000e+00
               3.5000000e-01     0.0000000e+00     3.3333330e-02
               2.5000000e-01     5.0000000e-02     6.6666670e-02
               3.0000000e-01     5.0000000e-02     3.3333330e-02
               3.0000000e-01     0.0000000e+00     1.0000000e-01
               3.5000000e-01     1.0000000e-01     0.0000000e+00
               4.5000000e-01     0.0000000e+00     0.0000000e+00
               2.0000000e-01     1.0000000e-01     1.0000000e-01
               4.0000000e-01     0.0000000e+00     3.3333330e-02
               4.0000000e-01     5.0000000e-02     0.0000000e+00
               3.0000000e-01     1.0000000e-01     3.3333330e-02
               2.5000000e-01     5.0000000e-02     1.0000000e-01
               2.5000000e-01     1.0000000e-01     6.6666670e-02
               3.5000000e-01     0.0000000e+00     6.6666670e-02
               3.0000000e-01     5.0000000e-02     6.6666670e-02
               3.5000000e-01     5.0000000e-02     3.3333330e-02
               3.5000000e-01     0.0000000e+00     1.0000000e-01
               5.0000000e-01     0.0000000e+00     0.0000000e+00
               2.5000000e-01     1.0000000e-01     1.0000000e-01
               4.0000000e-01     1.0000000e-01     0.0000000e+00
               3.0000000e-01     1.0000000e-01     6.6666670e-02
               4.0000000e-01     0.0000000e+00     6.6666670e-02
               4.5000000e-01     5.0000000e-02     0.0000000e+00
               4.5000000e-01     0.0000000e+00     3.3333330e-02
               3.0000000e-01     5.0000000e-02     1.0000000e-01
               3.5000000e-01     1.0000000e-01     3.3333330e-02
               3.5000000e-01     5.0000000e-02     6.6666670e-02
               4.0000000e-01     5.0000000e-02     3.3333330e-02
               4.5000000e-01     1.0000000e-01     0.0000000e+00
               5.5000000e-01     0.0000000e+00     0.0000000e+00
               4.0000000e-01     0.0000000e+00     1.0000000e-01
               3.0000000e-01     1.0000000e-01     1.0000000e-01
               3.5000000e-01     1.0000000e-01     6.6666670e-02
               4.0000000e-01     1.0000000e-01     3.3333330e-02
               5.0000000e-01     5.0000000e-02     0.0000000e+00
               4.5000000e-01     0.0000000e+00     6.6666670e-02
               5.0000000e-01     0.0000000e+00     3.3333330e-02
               3.5000000e-01     5.0000000e-02     1.0000000e-01
               4.5000000e-01     5.0000000e-02     3.3333330e-02
               4.0000000e-01     5.0000000e-02     6.6666670e-02
               4.5000000e-01     0.0000000e+00     1.0000000e-01
               5.0000000e-01     1.0000000e-01     0.0000000e+00
               3.5000000e-01     1.0000000e-01     1.0000000e-01
               6.0000000e-01     0.0000000e+00     0.0000000e+00
               4.0000000e-01     1.0000000e-01     6.6666670e-02
               5.5000000e-01     0.0000000e+00     3.3333330e-02
               5.0000000e-01     0.0000000e+00     6.6666670e-02
               4.0000000e-01     5.0000000e-02     1.0000000e-01
               4.5000000e-01     1.0000000e-01     3.3333330e-02
               5.5000000e-01     5.0000000e-02     0.0000000e+00
               5.0000000e-01     5.0000000e-02     3.3333330e-02
               4.5000000e-01     5.0000000e-02     6.6666670e-02
               5.0000000e-01     0.0000000e+00     1.0000000e-01
               6.5000000e-01     0.0000000e+00     0.0000000e+00
               5.5000000e-01     1.0000000e-01     0.0000000e+00
               4.0000000e-01     1.0000000e-01     1.0000000e-01
               4.5000000e-01     5.0000000e-02     1.0000000e-01
               4.5000000e-01     1.0000000e-01     6.6666670e-02
               5.5000000e-01     0.0000000e+00     6.6666670e-02
               6.0000000e-01     0.0000000e+00     3.3333330e-02
               6.0000000e-01     5.0000000e-02     0.0000000e+00
               5.0000000e-01     1.0000000e-01     3.3333330e-02
               5.5000000e-01     5.0000000e-02     3.3333330e-02
               5.0000000e-01     5.0000000e-02     6.6666670e-02
               6.0000000e-01     1.0000000e-01     0.0000000e+00
               5.5000000e-01     0.0000000e+00     1.0000000e-01
               4.5000000e-01     1.0000000e-01     1.0000000e-01
               7.0000000e-01     0.0000000e+00     0.0000000e+00
               6.5000000e-01     5.0000000e-02     0.0000000e+00
               5.0000000e-01     1.0000000e-01     6.6666670e-02
               5.0000000e-01     5.0000000e-02     1.0000000e-01
               5.5000000e-01     1.0000000e-01     3.3333330e-02
               6.5000000e-01     0.0000000e+00     3.3333330e-02
               6.0000000e-01     0.0000000e+00     6.6666670e-02
               5.5000000e-01     5.0000000e-02     6.6666670e-02
[...]
         <PointData>
            <DataArray type="Int32" Name="node-id" NumberOfComponents="1" format="ascii">
               1  2  3  4  5  6  7  8  9  10  11  12  13  14  15  16  17  18  19  20  21  22  23  24  25  26  27  28  29  30  31  32  33  34  35  36  37  38  39  40  41  42  43  44  45  46  47  48  49  50  51  52  53  54  55  56  57  58  59  60  61  62  63  64  65  66  67  68  69  70  71  72  73  74  75  76  77  78  79  80  81  82  83  84  85  86  87  88  89  90  91  92  93  94  95  96  97  98  99  100  101  102  103  104  105  106  107  108  109  110  111  112  113  114  115  116  117  118  119  120  121  122  123  124  125  126  127  128  129  130  131  132  133  134  135  136  137  138  139  140  141  142  143  144  145  146  147  148  149  150  151  152  153  154  155  156  157  158  159  160  161  162  163  164  165  166  167  168  169  170  171  172  173  174  175  176  177  178  179  180  181  182  183  184  185  186  187  188  189  190  191  192  193  194  195  196  197  198  199  200  201  202  203  204  205  206  207  208  209  210  211  212  213  214  215  216  217  218  219  220  221  222  223  224  225  226  227  228  229  230  231  232  233  234  235  236  237  238  239  240  241  242  243  244  245  246  247  248  249  250  251  252  
            </DataArray>
            <DataArray type="Float64" Name="ux" NumberOfComponents="1" format="ascii">
               0.0000000e+00    0.0000000e+00    0.0000000e+00   -3.2747013e-04    0.0000000e+00    0.0000000e+00   -7.2698563e-04   -1.0866635e-04    0.0000000e+00   -3.0459045e-04    0.0000000e+00   -1.0783595e-03   -3.2747013e-04    0.0000000e+00   -7.3212874e-04   -2.4333423e-04    1.0866635e-04    0.0000000e+00   -9.9575336e-05   -1.3470650e-03    0.0000000e+00   -7.2698563e-04    3.2747013e-04    0.0000000e+00   -3.5916385e-04   -1.0906584e-03   -1.0866635e-04    2.4333423e-04    9.9575336e-05   -2.4464302e-04    0.0000000e+00   -1.5525528e-03   -1.0783595e-03    7.2698563e-04   -4.4712372e-04    3.5916385e-04   -2.4333423e-04    3.0459045e-04    1.0866635e-04   -1.3541738e-03   -3.6350661e-04    2.4464302e-04   -1.3470650e-03    3.2747013e-04   -1.7239093e-03    1.0783595e-03    7.3212874e-04    2.4333423e-04   -5.1498396e-04   -3.5916385e-04   -1.5563212e-03    4.4712372e-04   -4.5055820e-04    3.6350661e-04   -1.8694481e-03    7.2698563e-04   -1.5525528e-03    1.3470650e-03   -4.4712372e-04   -1.7261436e-03    1.0906584e-03    3.5916385e-04   -5.7240628e-04    5.1498396e-04   -5.1715004e-04    4.5055820e-04    1.5525528e-03   -1.7239093e-03   -2.0027563e-03    1.0783595e-03    5.7240628e-04    4.4712372e-04   -5.1498396e-04    1.3541738e-03   -1.8703762e-03   -6.2192616e-04    5.1715004e-04   -5.7363574e-04    1.7239093e-03   -1.8694481e-03   -2.1251456e-03    1.3470650e-03   -6.6633913e-04   -2.0032406e-03   -5.7240628e-04    1.5563212e-03    5.1498396e-04    6.2192616e-04    5.7363574e-04   -6.2254723e-04    1.8694481e-03   -2.2369144e-03    1.5525528e-03   -2.0027563e-03    5.7240628e-04    6.6633913e-04   -2.1256623e-03   -7.0715195e-04    1.7261436e-03   -6.2192616e-04    6.2254723e-04   -6.6665589e-04   -2.1251456e-03   -2.3380376e-03    2.0027563e-03    1.7239093e-03    6.2192616e-04   -6.6633913e-04   -2.2374317e-03    7.0715195e-04   -7.4440351e-04    1.8703762e-03   -7.0747262e-04    6.6665589e-04    2.1251456e-03   -2.2369144e-03    1.8694481e-03   -2.4285167e-03    6.6633913e-04   -7.7811221e-04    7.4440351e-04    2.0032406e-03   -7.0715195e-04   -2.3385554e-03   -7.4473117e-04    7.0747262e-04    2.2369144e-03   -2.5083511e-03   -2.3380376e-03    2.0027563e-03    2.1256623e-03    7.0715195e-04    7.7811221e-04   -8.0827181e-04   -2.4290343e-03   -7.4440351e-04   -7.7843829e-04    7.4473117e-04   -2.4285167e-03    2.3380376e-03    2.1251456e-03   -2.5775412e-03   -2.5088687e-03    7.4440351e-04    2.2374317e-03   -7.7811221e-04   -8.3488331e-04    8.0827181e-04    7.7843829e-04   -8.0859812e-04   -2.5083511e-03   -2.6360862e-03    2.2369144e-03    2.4285167e-03   -8.5794658e-04    7.7811221e-04   -2.5780585e-03   -8.0827181e-04    2.3385554e-03    8.3488331e-04    8.0859812e-04   -8.3520956e-04   -2.6839869e-03    2.5083511e-03   -2.5775412e-03    2.3380376e-03   -8.7746163e-04    2.4290343e-03    8.5794658e-04   -2.6366038e-03   -8.3488331e-04    8.0827181e-04   -8.5827283e-04    8.3520956e-04   -2.6360862e-03    2.5775412e-03   -2.7212433e-03    2.4285167e-03    2.5088687e-03    8.3488331e-04   -8.9342875e-04   -2.6845043e-03   -8.5794658e-04    8.7746163e-04    8.5827283e-04   -8.7778794e-04   -2.7478449e-03   -2.6839869e-03    2.5083511e-03    2.6360862e-03   -9.0584642e-04   -8.7746163e-04   -2.7217607e-03    2.5780585e-03    8.9342875e-04    8.5794658e-04    8.7778794e-04   -8.9375471e-04   -2.7638820e-03   -2.7212433e-03    2.6839869e-03    2.5775412e-03   -8.9342875e-04    8.7746163e-04   -9.1471581e-04   -2.7483809e-03    9.0584642e-04    2.6366038e-03    8.9375471e-04   -9.0617401e-04   -2.7693631e-03   -2.7478449e-03    2.6360862e-03    2.7212433e-03   -9.0584642e-04   -9.2006795e-04   -2.7642630e-03    9.1471581e-04    2.6845043e-03    8.9342875e-04   -9.1504725e-04    9.0617401e-04   -9.2190673e-04    2.7478449e-03   -2.7638820e-03   -2.7695701e-03    2.6839869e-03    9.2006795e-04    9.0584642e-04    2.7217607e-03   -9.1471581e-04    9.1504725e-04   -9.2032930e-04   -2.7693631e-03    2.7638820e-03    9.2190673e-04    2.7212433e-03   -9.2209614e-04    2.7483809e-03   -9.2006795e-04    9.1471581e-04    9.2032930e-04    2.7693631e-03   -9.2190673e-04    2.7478449e-03    9.2006795e-04    2.7642630e-03    9.2209614e-04    2.7695701e-03    9.2190673e-04    2.7638820e-03    2.7693631e-03
            </DataArray>
            <DataArray type="Float64" Name="fx" NumberOfComponents="1" format="ascii">
               3.2096408e+02    5.8751428e+02    2.7964221e+02   -2.0228669e-03    3.2096408e+02   -2.7964221e+02   -1.3119911e-03    1.6315191e-03    4.9158081e+02   -1.7035843e-03   -3.2096408e+02    4.7527810e-04   -2.0228669e-03    2.7964221e+02   -2.9578398e-03    1.1934475e-03   -1.6315191e-03   -4.9158081e+02    2.8644968e-03    5.4680556e-04   -2.7964221e+02   -1.3119911e-03    2.0228669e-03   -5.8751428e+02   -2.4098580e-04    6.4484857e-04    1.6315191e-03   -1.1934475e-03   -2.8644968e-03    3.0389600e-03   -3.2096408e+02    7.9699865e-05    4.7527810e-04    1.3119911e-03   -2.8415080e-04    2.4098580e-04    1.1934475e-03    1.7035843e-03   -1.6315191e-03    5.8186398e-04   -2.0696246e-03   -3.0389600e-03    5.4680556e-04    2.0228669e-03    2.6130936e-06   -4.7527810e-04    2.9578398e-03   -1.1934475e-03   -4.6367131e-05   -2.4098580e-04    4.0628831e-05    2.8415080e-04   -1.3463844e-03    2.0696246e-03    5.1865602e-08    1.3119911e-03    7.9699865e-05   -5.4680556e-04   -2.8415080e-04   -9.6914910e-06   -6.4484857e-04    2.4098580e-04    9.5416647e-07    4.6367131e-05   -1.2199194e-04    1.3463844e-03   -7.9699865e-05    2.6130938e-06    2.3647750e-14   -4.7527810e-04   -9.5416647e-07    2.8415080e-04   -4.6367131e-05   -5.8186398e-04   -4.5409305e-08   -3.6705892e-08    1.2199194e-04    2.4444552e-07   -2.6130938e-06    5.1865591e-08    3.8968828e-14   -5.4680556e-04   -5.0071058e-14    8.6597396e-15    9.5416647e-07   -4.0628831e-05    4.6367131e-05    3.6705813e-08   -2.4444552e-07   -2.2351715e-08   -5.1865573e-08   -2.1982416e-14   -7.9699865e-05   -3.2751579e-14   -9.5416647e-07   -2.1094237e-14   -8.8817842e-16   -4.2854609e-14    9.6914910e-06   -3.6705885e-08    2.2351632e-08   -6.4448447e-14    3.7303494e-14    5.2846616e-14    3.0420111e-14   -2.6130938e-06    3.6705845e-08   -1.0103030e-14    1.8984814e-14   -1.4432899e-14    2.7366998e-14    4.5409291e-08   -8.9150909e-14    6.3282712e-14    4.6074256e-14    2.1316282e-14   -5.1865598e-08   -3.3861802e-14    3.3917313e-14   -1.2434498e-14   -2.9976022e-15   -4.8849813e-15    2.7866598e-14    1.4654944e-14   -8.8262730e-15   -2.0539126e-15    5.5511151e-16   -6.4392935e-14   -1.8207658e-14   -5.1070259e-15    6.4614980e-14   -4.1633363e-14    3.5027536e-14   -1.8041124e-15    6.5836225e-14    1.6764368e-14    5.4956040e-14    4.7184479e-15    1.5876189e-14    3.0753178e-14   -3.0864200e-14   -6.1617378e-15    1.5409896e-13    4.9238391e-14    3.7636561e-14   -8.3488771e-14   -9.0344399e-14   -2.5701663e-14    6.7557071e-14   -8.6042284e-16    1.9428903e-14    5.5400129e-14   -8.7707619e-15    9.4035890e-14    1.0999535e-13    2.4147351e-14    1.3022916e-13   -5.4622973e-14   -4.5852211e-14   -5.8369976e-14    1.4022117e-13   -3.6379233e-13    1.7930102e-14    1.7763568e-15    6.8722805e-14   -2.7200464e-14    7.7937656e-14    6.2616579e-14   -3.1169511e-14    1.0530465e-13   -9.7172270e-14   -3.6637360e-15    7.2275519e-14   -2.6617597e-13   -1.4821477e-14    3.6581849e-14    4.2271742e-14    7.8603790e-14    9.0039087e-14   -1.1049495e-13   -1.3350432e-13    8.4432461e-14   -7.4051876e-14   -1.8135493e-13    1.2650991e-13    7.1886941e-14   -5.6760152e-14    1.4932500e-13    1.4221957e-13   -1.6819879e-14   -1.8332558e-14   -6.0229599e-15   -6.4087624e-14   -3.9412917e-14   -8.2836515e-14    8.9150909e-14   -1.7394419e-13   -2.8216318e-13   -1.4890866e-14   -1.4868662e-13    1.0341727e-13   -6.5225603e-14   -1.3833379e-13    1.1951551e-13   -5.0223714e-14   -9.9170672e-14    3.4916514e-14   -1.9462210e-13    1.0061396e-14   -1.6431301e-13    6.6530982e-15    6.0090821e-14   -4.9737992e-14    4.4964032e-14   -1.0894063e-13    9.0649710e-14   -6.1894934e-14    1.9965973e-13    3.6803893e-14    6.6016637e-14    1.1901591e-13    1.0970391e-13    6.4226402e-14   -3.4944270e-14    1.6001089e-14   -5.4791241e-15   -8.1878948e-14   -2.0164426e-14    1.4087342e-13    2.2831737e-13   -1.0380585e-14    2.7089095e-13    3.3542613e-14    5.7487001e-14   -1.3475332e-14   -1.2687768e-13    3.9912518e-14    2.5952157e-13   -7.2719608e-14    5.6760152e-15    7.3430845e-14   -2.1950150e-13   -5.1356489e-15    6.4559469e-14   -1.2573276e-13   -4.3732379e-14   -5.5219718e-14   -9.4646513e-14    2.4535061e-14   -4.6081194e-14   -1.0184908e-13    7.4799542e-14
            </DataArray>
            <DataArray type="Float64" Name="uy" NumberOfComponents="1" format="ascii">
               0.0000000e+00    0.0000000e+00    0.0000000e+00   -1.4462550e-04    0.0000000e+00    0.0000000e+00   -1.5073677e-04   -3.4877608e-05    0.0000000e+00    1.6406632e-19    0.0000000e+00   -1.0556271e-04    1.4462550e-04    0.0000000e+00    7.1760891e-19   -3.7150701e-05    3.4877608e-05    0.0000000e+00    8.4958758e-20   -6.6042085e-05    0.0000000e+00    1.5073677e-04    1.4462550e-04    0.0000000e+00   -2.7565246e-05    1.1029470e-18    3.4877608e-05    3.7150701e-05   -3.7647245e-20    4.2035558e-19    0.0000000e+00   -4.4599041e-05    1.0556271e-04    1.5073677e-04   -1.8100520e-05    2.7565246e-05    3.7150701e-05   -2.0311106e-19   -3.4877608e-05    1.7079093e-18    7.2319258e-19    1.3244274e-19    6.6042085e-05   -1.4462550e-04   -3.2032887e-05    1.0556271e-04   -2.1011491e-19   -3.7150701e-05   -1.3235963e-05    2.7565246e-05    2.2872460e-18    1.8100520e-05    1.1274297e-18    3.5277687e-19   -2.5483598e-05   -1.5073677e-04    4.4599041e-05    6.6042085e-05    1.8100520e-05    2.6111505e-18    5.1998725e-20   -2.7565246e-05   -1.0679033e-05    1.3235963e-05    1.6551095e-18    6.1937015e-19    4.4599041e-05    3.2032887e-05   -2.3630788e-05   -1.0556271e-04    1.0679033e-05   -1.8100520e-05    1.3235963e-05    1.0174598e-19    2.8407829e-18   -9.0983967e-06    1.0332294e-18    1.9893030e-18    3.2032887e-05    2.5483598e-05   -2.1664266e-05   -6.6042085e-05   -8.3248560e-06    2.8899832e-18    1.0679033e-05    4.4845095e-19   -1.3235963e-05    9.0983967e-06    1.3554901e-18    2.1909802e-18    2.5483598e-05   -1.9697512e-05   -4.4599041e-05    2.3630788e-05   -1.0679033e-05    8.3248560e-06    3.5227099e-18   -7.6662745e-06    6.7424128e-19    9.0983967e-06    1.7807737e-18    2.1594172e-18    2.1664266e-05   -1.7726605e-05    2.3630788e-05   -3.2032887e-05   -9.0983967e-06    8.3248560e-06    4.0827733e-18    7.6662745e-06   -6.9631960e-06    1.0322018e-18    2.0061618e-18    1.5942335e-18    2.1664266e-05    1.9697512e-05   -2.5483598e-05   -1.5757196e-05   -8.3248560e-06   -6.2676977e-06    6.9631960e-06    1.9304245e-18    7.6662745e-06    4.1918362e-18    2.8348166e-18    1.6433721e-18    1.9697512e-05   -1.3787519e-05    1.7726605e-05   -2.3630788e-05    1.9090082e-18   -7.6662745e-06    6.2676977e-06   -5.5711625e-06    3.9276500e-18    6.9631960e-06    2.8560346e-18    1.7723792e-18    1.5757196e-05    1.7726605e-05   -2.1664266e-05   -1.1817880e-05    3.9692440e-18   -6.9631960e-06    9.7271394e-19    6.2676977e-06   -4.8747893e-06    5.5711625e-06    1.8739491e-18    2.9807375e-18    1.3787519e-05   -9.8482005e-06   -1.9697512e-05    1.5757196e-05   -4.1783874e-06   -6.2676977e-06    3.5899626e-18    5.5711625e-06    7.5965331e-19    4.8747893e-06    1.8736416e-18    3.5462726e-18   -7.8786470e-06    1.3787519e-05    1.1817880e-05   -1.7726605e-05   -3.4819873e-06    1.1533600e-18    4.1783874e-06    2.5753166e-18    4.8747893e-06   -5.5711625e-06    3.3837202e-18    2.5118690e-18    9.8482005e-06    1.1817880e-05   -5.9097993e-06   -1.5757196e-05    5.9753395e-20   -4.8747893e-06   -2.7855313e-06    3.2397978e-18    4.1783874e-06    3.4819873e-06    2.1441245e-18    1.8139938e-18   -3.9352044e-06    7.8786470e-06   -1.3787519e-05    9.8482005e-06   -2.0900761e-06    3.4819873e-06    2.8625499e-18    7.1353613e-19    2.7855313e-06   -4.1783874e-06    8.9737919e-19    1.4404567e-18   -1.9096392e-06    5.9097993e-06    7.8786470e-06   -1.1817880e-05    2.7855313e-06   -3.4819873e-06   -1.3894135e-06    1.9006904e-18    2.0900761e-06    1.3309929e-18    1.2303950e-18    7.5245963e-19   -6.9587463e-07    3.9352044e-06   -9.8482005e-06    5.9097993e-06    2.0900761e-06   -6.7122033e-07    5.9622253e-19    1.3894135e-06   -2.4261761e-19   -2.7855313e-06   -8.4075728e-19   -8.6911288e-19   -2.8615523e-07    3.9352044e-06    1.9096392e-06    6.7632634e-19   -7.8786470e-06    6.7122033e-07   -2.0900761e-06    4.0357305e-19    1.3894135e-06   -1.4569566e-18   -3.9643094e-19    6.9587463e-07    1.9096392e-06    2.8615523e-07   -5.9097993e-06   -5.4116725e-19    6.8872888e-19    6.7122033e-07   -1.3894135e-06   -8.6088238e-19    6.9587463e-07    2.8615523e-07   -3.9352044e-06   -6.7122033e-07    2.2820230e-19   -1.2740681e-18   -8.5800689e-19   -2.8615523e-07   -1.9096392e-06   -6.9587463e-07
            </DataArray>
            <DataArray type="Float64" Name="fy" NumberOfComponents="1" format="ascii">
               1.1036400e+02   -8.8151708e-14    8.9157440e+01    2.4870525e-03   -1.1036400e+02   -8.9157440e+01    4.7579315e-03   -3.0690602e-03   -1.3318513e-13   -1.2715523e-13   -1.1036400e+02    3.1170819e-03   -2.4870525e-03   -8.9157440e+01    1.1515094e-14   -3.1861628e-03    3.0690602e-03    1.9462210e-13   -5.4195884e-13    4.2415422e-04    8.9157440e+01   -4.7579315e-03   -2.4870525e-03    1.8729462e-13   -2.8522338e-03    5.9049987e-15    3.0690602e-03    3.1861628e-03   -4.8139270e-13   -2.0278224e-13    1.1036400e+02    5.1406507e-05   -3.1170819e-03   -4.7579315e-03   -8.5257820e-04    2.8522338e-03    3.1861628e-03   -3.9052095e-14   -3.0690602e-03    6.1353700e-14   -1.2482376e-13   -1.7355561e-13   -4.2415422e-04    2.4870525e-03    1.0826320e-05   -3.1170819e-03    4.0956821e-14   -3.1861628e-03   -2.4143152e-05    2.8522338e-03    3.9725168e-14    8.5257820e-04    1.2129187e-14   -1.5018542e-13    6.3169404e-07    4.7579315e-03   -5.1406507e-05   -4.2415422e-04    8.5257820e-04   -2.3207131e-14   -3.7074510e-14   -2.8522338e-03   -1.9739216e-06    2.4143152e-05   -2.4868996e-14   -4.3728909e-14   -5.1406507e-05   -1.0826320e-05    6.7502427e-16    3.1170819e-03    1.9739216e-06   -8.5257820e-04    2.4143152e-05    1.3430229e-14    1.8847771e-14   -1.9123925e-07    2.2773450e-14    1.2198575e-14   -1.0826320e-05   -6.3169404e-07   -1.2136993e-14    4.2415422e-04   -1.2897669e-14    4.8091305e-14    1.9739214e-06    8.3787144e-15   -2.4143152e-05    1.9123925e-07   -3.8778009e-14   -4.7489790e-14   -6.3169404e-07    3.0318630e-14    5.1406507e-05    1.0186470e-13   -1.9739216e-06   -5.4619503e-14    7.8140619e-15   -5.3998472e-14    3.2000444e-14    1.9123924e-07   -1.9810542e-14   -5.2468446e-14    8.9451016e-15    1.5987992e-13   -5.5789141e-14    1.0826320e-05   -1.9123924e-07   -5.9062130e-14    1.9541660e-14   -3.8644435e-14   -8.7360674e-14    5.9469790e-14    7.7243767e-14    3.3931191e-15    5.4383581e-15    1.8243219e-14    6.3169404e-07    7.4433515e-14   -8.7846397e-15   -5.1344345e-14   -1.4576881e-14    6.5589027e-14   -1.1542850e-14    8.6293819e-15    1.0579038e-13   -7.3031858e-14   -5.4302916e-14    1.3783506e-13    1.6884064e-14    3.9785666e-14    7.0258903e-14    2.5970545e-14   -8.3977963e-14    6.1155941e-14   -1.1322453e-13    5.1035565e-14   -3.8925460e-14   -1.1627678e-13    3.9346131e-14    5.0260143e-14   -2.6842244e-14    2.9450400e-14   -1.4497344e-13    1.8813076e-14    5.6932757e-14    8.9251523e-15   -1.9706459e-14    5.4315927e-14   -1.2484978e-13   -9.8235656e-14   -9.0532616e-14   -4.9904525e-14   -3.1366403e-14    5.3749540e-14   -4.6424670e-14    6.5697447e-14    7.9670645e-14    4.0908249e-14    3.3153168e-14    5.1940223e-14    4.7913062e-15    6.5438974e-14   -3.0110463e-14   -3.0066227e-14   -4.1672395e-14   -2.1341436e-14    8.5976365e-14   -6.1607837e-14   -3.5671986e-14    6.1548856e-14    1.0468362e-13   -6.6960326e-14   -1.9264104e-13   -4.8521950e-14   -2.5470077e-14   -3.1035938e-14    6.9692516e-15    1.0345023e-14   -5.0333002e-14   -3.6958284e-14    1.1394965e-13    8.1212814e-14   -4.8728382e-14    1.7039495e-13    6.4967129e-14   -1.3458332e-13    3.6928793e-14   -1.6734270e-13    5.1802312e-14   -1.4095582e-13   -3.7024203e-14   -1.4511829e-13    7.9887919e-14    6.2930564e-14   -1.1689608e-13    1.1668010e-13   -1.8405416e-15    3.5942603e-14   -1.7168038e-13   -8.5565235e-15   -1.1303198e-13    5.0810918e-14   -1.2238474e-15    2.1364421e-14   -8.0426117e-15    8.1443966e-14   -2.3613457e-13    2.6563821e-14    1.1299208e-13   -6.4844397e-14   -1.1800642e-13    7.8513585e-15    1.3261874e-13   -5.1823996e-14    9.1955089e-14    2.5074127e-14   -4.5069851e-14   -5.5608946e-14    3.1506048e-14   -5.2341811e-14   -1.5944060e-13    9.8939520e-14    4.9703297e-14    1.4402108e-13    2.5377443e-13    3.6157058e-15    1.1189140e-13    2.1646617e-13    1.3144000e-13    9.4095738e-15    8.4670986e-14    6.1202345e-14   -1.1726102e-13   -5.8719156e-14    3.2377746e-14    3.0426182e-14   -2.4452662e-14   -4.0584506e-14   -1.1047586e-14   -3.3471056e-14   -1.1140329e-13   -5.5745773e-14    5.8023376e-14    1.0257897e-13   -8.0627345e-14    4.4404584e-14   -1.5227576e-13    4.6651132e-14   -1.9068585e-13    4.0808069e-14    2.9518922e-14    5.0465057e-14
            </DataArray>
            <DataArray type="Float64" Name="uz" NumberOfComponents="1" format="ascii">