<?xml version="1.0"?>
<VTKFile type="UnstructuredGrid" version="0.1" byte_order="LittleEndian">
   <UnstructuredGrid>
      <Piece NumberOfPoints="252" NumberOfCells="120">
         <Points>
            <DataArray type="Float64" NumberOfComponents="3" format="ascii">
               0.0000000e+00     0.0000000e+00     0.0000000e+00
               0.0000000e+00     5.0000000e-02     0.0000000e+00
               0.0000000e+00     0.0000000e+00     3.3333330e-02
               5.0000000e-02     0.0000000e+00     0.0000000e+00
               0.0000000e+00     1.0000000e-01     0.0000000e+00
               0.0000000e+00     0.0000000e+00     6.6666670e-02
               1.0000000e-01     0.0000000e+00     0.0000000e+00
               5.0000000e-02     0.0000000e+00     3.3333330e-02
               0.0000000e+00     5.0000000e-02     3.3333330e-02
               5.0000000e-02     5.0000000e-02     0.0000000e+00
               0.0000000e+00     0.0000000e+00     1.0000000e-01
               1.5000000e-01     0.0000000e+00     0.0000000e+00
               5.0000000e-02     1.0000000e-01     0.0000000e+00
               0.0000000e+00     1.0000000e-01     3.3333330e-02
               1.0000000e-01     5.0000000e-02     0.0000000e+00
               1.0000000e-01     0.0000000e+00     3.3333330e-02
               5.0000000e-02     0.0000000e+00     6.6666670e-02
               0.0000000e+00     5.0000000e-02     6.6666670e-02
               5.0000000e-02     5.0000000e-02     3.3333330e-02
               2.0000000e-01     0.0000000e+00     0.0000000e+00
               0.0000000e+00     1.0000000e-01     6.6666670e-02
               1.0000000e-01     1.0000000e-01     0.0000000e+00
               5.0000000e-02     0.0000000e+00     1.0000000e-01
               0.0000000e+00     5.0000000e-02     1.0000000e-01
               1.5000000e-01     0.0000000e+00     3.3333330e-02
               1.5000000e-01     5.0000000e-02     0.0000000e+00
               5.0000000e-02     1.0000000e-01     3.3333330e-02
               1.0000000e-01     0.0000000e+00     6.6666670e-02
               5.0000000e-02     5.0000000e-02     6.6666670e-02
               1.0000000e-01     5.0000000e-02     3.3333330e-02
               0.0000000e+00     1.0000000e-01     1.0000000e-01
               2.5000000e-01     0.0000000e+00     0.0000000e+00
               1.5000000e-01     1.0000000e-01     0.0000000e+00
               1.0000000e-01     0.0000000e+00     1.0000000e-01
               2.0000000e-01     0.0000000e+00     3.3333330e-02
               1.5000000e-01     0.0000000e+00     6.6666670e-02
               1.0000000e-01     1.0000000e-01     3.3333330e-02
               5.0000000e-02     5.0000000e-02     1.0000000e-01
               5.0000000e-02     1.0000000e-01     6.6666670e-02
               2.0000000e-01     5.0000000e-02     0.0000000e+00
               1.5000000e-01     5.0000000e-02     3.3333330e-02
               1.0000000e-01     5.0000000e-02     6.6666670e-02
               2.0000000e-01     1.0000000e-01     0.0000000e+00
               5.0000000e-02     1.0000000e-01     1.0000000e-01
               3.0000000e-01     0.0000000e+00     0.0000000e+00
               1.5000000e-01     0.0000000e+00     1.0000000e-01
               1.0000000e-01     5.0000000e-02     1.0000000e-01
               1.0000000e-01     1.0000000e-01     6.6666670e-02
               2.5000000e-01     0.0000000e+00     3.3333330e-02
               1.5000000e-01     1.0000000e-01     3.3333330e-02
               2.5000000e-01     5.0000000e-02     0.0000000e+00
               2.0000000e-01     0.0000000e+00     6.6666670e-02
               2.0000000e-01     5.0000000e-02     3.3333330e-02
               1.5000000e-01     5.0000000e-02     6.6666670e-02
               3.5000000e-01     0.0000000e+00     0.0000000e+00
               1.0000000e-01     1.0000000e-01     1.0000000e-01
               2.5000000e-01     1.0000000e-01     0.0000000e+00
               2.0000000e-01     0.0000000e+00     1.0000000e-01
               2.0000000e-01     1.0000000e-01     3.3333330e-02
               3.0000000e-01     5.0000000e-02     0.0000000e+00
               1.5000000e-01     5.0000000e-02     1.0000000e-01
               1.5000000e-01     1.0000000e-01     6.6666670e-02
               3.0000000e-01     0.0000000e+00     3.3333330e-02
               2.5000000e-01     0.0000000e+00     6.6666670e-02
               2.5000000e-01     5.0000000e-02     3.3333330e-02
               2.0000000e-01     5.0000000e-02     6.6666670e-02
               2.5000000e-01     0.0000000e+00     1.0000000e-01
               3.0000000e-01     1.0000000e-01     0.0000000e+00
               4.0000000e-01     0.0000000e+00     0.0000000e+00
               1.5000000e-01     1.0000000e-01     1.0000000e-01
               3.0000000e-01     0.0000000e+00     6.6666670e-02
               2.0000000e-01     1.0000000e-01     6.6666670e-02
               2.5000000e-01     1.0000000e-01     3.3333330e-02
               2.0000000e-01     5.0000000e-02     1.0000000e-01
               3.5000000e-01     5.0000000e-02     0.0000000e+00
               3.5000000e-01     0.0000000e+00     3.3333330e-02
               2.5000000e-01     5.0000000e-02     6.6666670e-02
               3.0000000e-01     5.0000000e-02     3.3333330e-02
               3.0000000e-01     0.0000000e+00     1.0000000e-01
               3.5000000e-01     1.0000000e-01     0.0000000e+00
               4.5000000e-01     0.0000000e+00     0.0000000e+00
               2.0000000e-01     1.0000000e-01     1.0000000e-01
               4.0000000e-01     0.0000000e+00     3.3333330e-02
               4.0000000e-01     5.0000000e-02     0.0000000e+00
               3.0000000e-01     1.0000000e-01     3.3333330e-02
               2.5000000e-01     5.0000000e-02     1.0000000e-01
               2.5000000e-01     1.0000000e-01     6.6666670e-02
               3.5000000e-01     0.0000000e+00     6.6666670e-02
               3.0000000e-01     5.0000000e-02     6.6666670e-02
               3.5000000e-01     5.0000000e-02     3.3333330e-02
               3.5000000e-01     0.0000000e+00     1.0000000e-01
               5.0000000e-01     0.0000000e+00     0.0000000e+00
               2.5000000e-01     1.0000000e-01     1.0000000e-01
               4.0000000e-01     1.0000000e-01     0.0000000e+00
               3.0000000e-01     1.0000000e-01     6.6666670e-02
               4.0000000e-01     0.0000000e+00     6.6666670e-02
               4.5000000e-01     5.0000000e-02     0.0000000e+00
               4.5000000e-01     0.0000000e+00     3.3333330e-02
               3.0000000e-01     5.0000000e-02     1.0000000e-01
               3.5000000e-01     1.0000000e-01     3.3333330e-02
               3.5000000e-01     5.0000000e-02     6.6666670e-02
               4.0000000e-01     5.0000000e-02     3.3333330e-02
               4.5000000e-01     1.0000000e-01     0.0000000e+00
               5.5000000e-01     0.0000000e+00     0.0000000e+00
               4.0000000e-01     0.0000000e+00     1.0000000e-01
               3.0000000e-01     1.0000000e-01     1.0000000e-01
               3.5000000e-01     1.0000000e-01     6.6666670e-02
               4.0000000e-01     1.0000000e-01     3.3333330e-02
               5.0000000e-01     5.0000000e-02     0.0000000e+00
               4.5000000e-01     0.0000000e+00     6.6666670e-02
               5.0000000e-01     0.0000000e+00     3.3333330e-02
               3.5000000e-01     5.0000000e-02     1.0000000e-01
               4.5000000e-01     5.0000000e-02     3.3333330e-02
               4.0000000e-01     5.0000000e-02     6.6666670e-02
               4.5000000e-01     0.0000000e+00     1.0000000e-01
               5.0000000e-01     1.0000000e-01     0.0000000e+00
               3.5000000e-01     1.0000000e-01     1.0000000e-01
               6.0000000e-01     0.0000000e+00     0.0000000e+00
               4.0000000e-01     1.0000000e-01     6.6666670e-02
               5.5000000e-01     0.0000000e+00     3.3333330e-02
               5.0000000e-01     0.0000000e+00     6.6666670e-02
               4.0000000e-01     5.0000000e-02     1.0000000e-01
               4.5000000e-01     1.0000000e-01     3.3333330e-02
               5.5000000e-01     5.0000000e-02     0.0000000e+00
               5.0000000e-01     5.0000000e-02     3.3333330e-02
               4.5000000e-01     5.0000000e-02     6.6666670e-02
               5.0000000e-01     0.0000000e+00     1.0000000e-01
               6.5000000e-01     0.0000000e+00     0.0000000e+00
               5.5000000e-01     1.0000000e-01     0.0000000e+00
               4.0000000e-01     1.0000000e-01     1.0000000e-01
               4.5000000e-01     5.0000000e-02     1.0000000e-01
               4.5000000e-01     1.0000000e-01     6.6666670e-02
               5.5000000e-01     0.0000000e+00     6.6666670e-02
               6.0000000e-01     0.0000000e+00     3.3333330e-02
               6.0000000e-01     5.0000000e-02     0.0000000e+00
               5.0000000e-01     1.0000000e-01     3.3333330e-02
               5.5000000e-01     5.0000000e-02     3.3333330e-02
               5.0000000e-01     5.0000000e-02     6.6666670e-02
               6.0000000e-01     1.0000000e-01     0.0000000e+00
               5.5000000e-01     0.0000000e+00     1.0000000e-01
               4.5000000e-01     1.0000000e-01     1.0000000e-01
               7.0000000e-01     0.0000000e+00     0.0000000e+00
               6.5000000e-01     5.0000000e-02     0.0000000e+00
               5.0000000e-01     1.0000000e-01     6.6666670e-02
               5.0000000e-01     5.0000000e-02     1.0000000e-01
               5.5000000e-01     1.0000000e-01     3.3333330e-02
               6.5000000e-01     0.0000000e+00     3.3333330e-02
               6.0000000e-01     0.0000000e+00     6.6666670e-02
               5.5000000e-01     5.0000000e-02     6.6666670e-02
[...]
         <PointData>
            <DataArray type="Int32" Name="node-id" NumberOfComponents="1" format="ascii">
               1  2  3  4  5  6  7  8  9  10  11  12  13  14  15  16  17  18  19  20  21  22  23  24  25  26  27  28  29  30  31  32  33  34  35  36  37  38  39  40  41  42  43  44  45  46  47  48  49  50  51  52  53  54  55  56  57  58  59  60  61  62  63  64  65  66  67  68  69  70  71  72  73  74  75  76  77  78  79  80  81  82  83  84  85  86  87  88  89  90  91  92  93  94  95  96  97  98  99  100  101  102  103  104  105  106  107  108  109  110  111  112  113  114  115  116  117  118  119  120  121  122  123  124  125  126  127  128  129  130  131  132  133  134  135  136  137  138  139  140  141  142  143  144  145  146  147  148  149  150  151  152  153  154  155  156  157  158  159  160  161  162  163  164  165  166  167  168  169  170  171  172  173  174  175  176  177  178  179  180  181  182  183  184  185  186  187  188  189  190  191  192  193  194  195  196  197  198  199  200  201  202  203  204  205  206  207  208  209  210  211  212  213  214  215  216  217  218  219  220  221  222  223  224  225  226  227  228  229  230  231  232  233  234  235  236  237  238  239  240  241  242  243  244  245  246  247  248  249  250  251  252  
            </DataArray>
            <DataArray type="Float64" Name="ux" NumberOfComponents="1" format="ascii">
               0.0000000e+00    0.0000000e+00    0.0000000e+00   -3.2747013e-04    0.0000000e+00    0.0000000e+00   -7.2698563e-04   -1.0866635e-04    0.0000000e+00   -3.0459045e-04    0.0000000e+00   -1.0783595e-03   -3.2747013e-04    0.0000000e+00   -7.3212874e-04   -2.4333423e-04    1.0866635e-04    0.0000000e+00   -9.9575336e-05   -1.3470650e-03    0.0000000e+00   -7.2698563e-04    3.2747013e-04    0.0000000e+00   -3.5916385e-04   -1.0906584e-03   -1.0866635e-04    2.4333423e-04    9.9575336e-05   -2.4464302e-04    0.0000000e+00   -1.5525528e-03   -1.0783595e-03    7.2698563e-04   -4.4712372e-04    3.5916385e-04   -2.4333423e-04    3.0459045e-04    1.0866635e-04   -1.3541738e-03   -3.6350661e-04    2.4464302e-04   -1.3470650e-03    3.2747013e-04   -1.7239093e-03    1.0783595e-03    7.3212874e-04    2.4333423e-04   -5.1498396e-04   -3.5916385e-04   -1.5563212e-03    4.4712372e-04   -4.5055820e-04    3.6350661e-04   -1.8694481e-03    7.2698563e-04   -1.5525528e-03    1.3470650e-03   -4.4712372e-04   -1.7261436e-03    1.0906584e-03    3.5916385e-04   -5.7240628e-04    5.1498396e-04   -5.1715004e-04    4.5055820e-04    1.5525528e-03   -1.7239093e-03   -2.0027563e-03    1.0783595e-03    5.7240628e-04    4.4712372e-04   -5.1498396e-04    1.3541738e-03   -1.8703762e-03   -6.2192616e-04    5.1715004e-04   -5.7363574e-04    1.7239093e-03   -1.8694481e-03   -2.1251456e-03    1.3470650e-03   -6.6633913e-04   -2.0032406e-03   -5.7240628e-04    1.5563212e-03    5.1498396e-04    6.2192616e-04    5.7363574e-04   -6.2254723e-04    1.8694481e-03   -2.2369144e-03    1.5525528e-03   -2.0027563e-03    5.7240628e-04    6.6633913e-04   -2.1256623e-03   -7.0715195e-04    1.7261436e-03   -6.2192616e-04    6.2254723e-04   -6.6665589e-04   -2.1251456e-03   -2.3380376e-03    2.0027563e-03    1.7239093e-03    6.2192616e-04   -6.6633913e-04   -2.2374317e-03    7.0715195e-04   -7.4440351e-04    1.8703762e-03   -7.0747262e-04    6.6665589e-04    2.1251456e-03   -2.2369144e-03    1.8694481e-03   -2.4285167e-03    6.6633913e-04   -7.7811221e-04    7.4440351e-04    2.0032406e-03   -7.0715195e-04   -2.3385554e-03   -7.4473117e-04    7.0747262e-04    2.2369144e-03   -2.5083511e-03   -2.3380376e-03    2.0027563e-03    2.1256623e-03    7.0715195e-04    7.7811221e-04   -8.0827181e-04   -2.4290343e-03   -7.4440351e-04   -7.7843829e-04    7.4473117e-04   -2.4285167e-03    2.3380376e-03    2.1251456e-03   -2.5775412e-03   -2.5088687e-03    7.4440351e-04    2.2374317e-03   -7.7811221e-04   -8.3488331e-04    8.0827181e-04    7.7843829e-04   -8.0859812e-04   -2.5083511e-03   -2.6360862e-03    2.2369144e-03    2.4285167e-03   -8.5794658e-04    7.7811221e-04   -2.5780585e-03   -8.0827181e-04    2.3385554e-03    8.3488331e-04    8.0859812e-04   -8.3520956e-04   -2.6839869e-03    2.5083511e-03   -2.5775412e-03    2.3380376e-03   -8.7746163e-04    2.4290343e-03    8.5794658e-04   -2.6366038e-03   -8.3488331e-04    8.0827181e-04   -8.5827283e-04    8.3520956e-04   -2.6360862e-03    2.5775412e-03   -2.7212433e-03    2.4285167e-03    2.5088687e-03    8.3488331e-04   -8.9342875e-04   -2.6845043e-03   -8.5794658e-04    8.7746163e-04    8.5827283e-04   -8.7778794e-04   -2.7478449e-03   -2.6839869e-03    2.5083511e-03    2.6360862e-03   -9.0584642e-04   -8.7746163e-04   -2.7217607e-03    2.5780585e-03    8.9342875e-04    8.5794658e-04    8.7778794e-04   -8.9375471e-04   -2.7638820e-03   -2.7212433e-03    2.6839869e-03    2.5775412e-03   -8.9342875e-04    8.7746163e-04   -9.1471581e-04   -2.7483809e-03    9.0584642e-04    2.6366038e-03    8.9375471e-04   -9.0617401e-04   -2.7693631e-03   -2.7478449e-03    2.6360862e-03    2.7212433e-03   -9.0584642e-04   -9.2006795e-04   -2.7642630e-03    9.1471581e-04    2.6845043e-03    8.9342875e-04   -9.1504725e-04    9.0617401e-04   -9.2190673e-04    2.7478449e-03   -2.7638820e-03   -2.7695701e-03    2.6839869e-03    9.2006795e-04    9.0584642e-04    2.7217607e-03   -9.1471581e-04    9.1504725e-04   -9.2032930e-04   -2.7693631e-03    2.7638820e-03    9.2190673e-04    2.7212433e-03   -9.2209614e-04    2.7483809e-03   -9.2006795e-04    9.1471581e-04    9.2032930e-04    2.7693631e-03   -9.2190673e-04    2.7478449e-03    9.2006795e-04    2.7642630e-03    9.2209614e-04    2.7695701e-03    9.2190673e-04    2.7638820e-03    2.7693631e-03
            </DataArray>
            <DataArray type="Float64" Name="fx" NumberOfComponents="1" format="ascii">
               3.2096408e+02    5.8751428e+02    2.7964221e+02   -2.0228669e-03    3.2096408e+02   -2.7964221e+02   -1.3119911e-03    1.6315191e-03    4.9158081e+02   -1.7035843e-03   -3.2096408e+02    4.7527810e-04   -2.0228669e-03    2.7964221e+02   -2.9578398e-03    1.1934475e-03   -1.6315191e-03   -4.9158081e+02    2.8644968e-03    5.4680556e-04   -2.7964221e+02   -1.3119911e-03    2.0228669e-03   -5.8751428e+02   -2.4098580e-04    6.4484857e-04    1.6315191e-03   -1.1934475e-03   -2.8644968e-03    3.0389600e-03   -3.2096408e+02    7.9699865e-05    4.7527810e-04    1.3119911e-03   -2.8415080e-04    2.4098580e-04    1.1934475e-03    1.7035843e-03   -1.6315191e-03    5.8186398e-04   -2.0696246e-03   -3.0389600e-03    5.4680556e-04    2.0228669e-03    2.6130938e-06   -4.7527810e-04    2.9578398e-03   -1.1934475e-03   -4.6367131e-05   -2.4098580e-04    4.0628831e-05    2.8415080e-04   -1.3463844e-03    2.0696246e-03    5.1865580e-08    1.3119911e-03    7.9699865e-05   -5.4680556e-04   -2.8415080e-04   -9.6914910e-06   -6.4484857e-04    2.4098580e-04    9.5416647e-07    4.6367131e-05   -1.2199194e-04    1.3463844e-03   -7.9699865e-05    2.6130936e-06    3.1086245e-15   -4.7527810e-04   -9.5416647e-07    2.8415080e-04   -4.6367131e-05   -5.8186398e-04   -4.5409308e-08   -3.6705845e-08    1.2199194e-04    2.4444552e-07   -2.6130938e-06    5.1865651e-08   -3.1863401e-14   -5.4680556e-04    4.1078252e-15   -4.5630166e-14    9.5416647e-07   -4.0628831e-05    4.6367131e-05    3.6705842e-08   -2.4444546e-07   -2.2351648e-08   -5.1865594e-08    5.6621374e-15   -7.9699865e-05   -3.4083847e-14   -9.5416647e-07    5.3290705e-15    1.7097435e-14    3.0475622e-14    9.6914910e-06   -3.6705828e-08    2.2351660e-08   -5.8342220e-14   -2.0872193e-14   -5.3068661e-14    3.6637360e-15   -2.6130938e-06    3.6705863e-08   -2.3980817e-14    3.5860204e-14   -3.3695269e-14   -2.4924507e-14    4.5409273e-08   -7.8270723e-15   -1.2878587e-14   -2.1094237e-15    3.0198066e-14   -5.1865584e-08    9.2037489e-14   -3.8635761e-14   -3.0780933e-14   -1.5099033e-14    1.1213253e-14    1.2767565e-14    2.4313884e-14   -2.7366998e-14    1.9095836e-14    1.0880186e-14   -3.6637360e-14   -2.0095037e-14    2.2315483e-14    4.1744386e-14    2.5868196e-14    4.4242388e-14    7.3219208e-14    8.1046281e-15    3.2307490e-14    4.9987792e-14   -6.7446049e-14    2.8310687e-14    2.0539126e-14    4.2521542e-14   -5.2347016e-14   -6.1062266e-15    2.6867397e-14   -2.4980018e-14    3.5305092e-14   -1.3070101e-13    1.1990409e-14    3.4250380e-14    3.4611203e-14   -6.2505556e-14    2.2593039e-14   -3.3306691e-15   -6.6613381e-15   -2.0233815e-14   -1.1268764e-14   -1.5826229e-13    3.5721426e-14    4.6518345e-14    4.8405724e-14   -1.9317881e-14   -6.9055872e-14   -6.9999562e-14   -5.1625371e-14   -2.2315483e-14   -4.4186876e-14    1.0819123e-13   -1.1046719e-13    7.9769524e-14    3.1197267e-14   -3.1891156e-14   -8.8207219e-14   -1.3877788e-16   -8.1851192e-14    4.6407322e-14    9.5479180e-15    1.9373392e-14    5.2957638e-14    1.0336176e-13   -2.7700064e-14    1.3322676e-15    4.1355808e-14   -6.7529315e-14   -6.2172489e-15    5.5289107e-14    3.2474023e-15   -4.9876769e-14    1.0541568e-13    6.9722006e-14   -4.4186876e-14    7.2011841e-14   -6.7362782e-14    7.2303274e-14   -9.8809849e-15   -3.4014458e-14   -4.8849813e-15   -4.7434279e-14    4.3798298e-14   -6.1381455e-14   -2.1760371e-14    3.9523940e-14    4.7573057e-14    6.0507155e-14    1.6514567e-14    7.9436457e-14   -1.7486013e-14   -8.6326779e-14    7.4995565e-14   -2.4244495e-14    9.7977182e-14    1.0031038e-15   -2.4147351e-15    1.8152146e-14   -1.1407542e-14   -4.1425197e-14    1.8013369e-14   -6.6807671e-14   -2.1163626e-16   -8.3766327e-14    2.9962144e-14    7.8659301e-14   -7.9804219e-14    3.3327507e-14    7.7715612e-15    5.7481797e-14   -8.9945412e-16   -9.3647312e-14    3.9079850e-14   -3.0191127e-14    1.2614909e-13   -7.1498363e-14   -2.1267710e-14   -1.0402790e-13   -2.4792668e-14    9.9212305e-14   -9.8594743e-14   -7.8992368e-14    4.4804438e-14    2.7117197e-14   -7.8340112e-14    7.3427375e-14   -9.1319313e-14   -2.1545266e-14    3.7733705e-14    9.3480779e-14   -1.2413681e-14    2.0386470e-14   -3.2737701e-14    1.5004924e-14    3.3952008e-14   -7.7257645e-14    3.4802022e-14
            </DataArray>
            <DataArray type="Float64" Name="uy" NumberOfComponents="1" format="ascii">
               0.0000000e+00    0.0000000e+00    0.0000000e+00   -1.4462550e-04    0.0000000e+00    0.0000000e+00   -1.5073677e-04   -3.4877608e-05    0.0000000e+00    1.2064830e-19    0.0000000e+00   -1.0556271e-04    1.4462550e-04    0.0000000e+00    8.9458136e-19   -3.7150701e-05    3.4877608e-05    0.0000000e+00    1.0225724e-19   -6.6042085e-05    0.0000000e+00    1.5073677e-04    1.4462550e-04    0.0000000e+00   -2.7565246e-05    1.7395416e-18    3.4877608e-05    3.7150701e-05   -7.0260075e-21    7.0111777e-19    0.0000000e+00   -4.4599041e-05    1.0556271e-04    1.5073677e-04   -1.8100520e-05    2.7565246e-05    3.7150701e-05   -1.9534531e-19   -3.4877608e-05    3.0087731e-18    1.4639403e-18    4.4337641e-19    6.6042085e-05   -1.4462550e-04   -3.2032887e-05    1.0556271e-04    9.3025281e-20   -3.7150701e-05   -1.3235963e-05    2.7565246e-05    4.2442555e-18    1.8100520e-05    2.5052796e-18    1.1496894e-18   -2.5483598e-05   -1.5073677e-04    4.4599041e-05    6.6042085e-05    1.8100520e-05    5.1914782e-18    8.7175283e-19   -2.7565246e-05   -1.0679033e-05    1.3235963e-05    3.6772686e-18    2.0508552e-18    4.4599041e-05    3.2032887e-05   -2.3630788e-05   -1.0556271e-04    1.0679033e-05   -1.8100520e-05    1.3235963e-05    1.5726170e-18    6.0824046e-18   -9.0983967e-06    3.1132818e-18    4.6613456e-18    3.2032887e-05    2.5483598e-05   -2.1664266e-05   -6.6042085e-05   -8.3248560e-06    6.7652133e-18    1.0679033e-05    2.6267722e-18   -1.3235963e-05    9.0983967e-06    4.1627463e-18    5.5454197e-18    2.5483598e-05   -1.9697512e-05   -4.4599041e-05    2.3630788e-05   -1.0679033e-05    8.3248560e-06    8.0088140e-18   -7.6662745e-06    3.5488422e-18    9.0983967e-06    5.1706638e-18    6.1299038e-18    2.1664266e-05   -1.7726605e-05    2.3630788e-05   -3.2032887e-05   -9.0983967e-06    8.3248560e-06    9.4233846e-18    7.6662745e-06   -6.9631960e-06    4.6593492e-18    6.5955643e-18    5.7313372e-18    2.1664266e-05    1.9697512e-05   -2.5483598e-05   -1.5757196e-05   -8.3248560e-06   -6.2676977e-06    6.9631960e-06    6.1823723e-18    7.6662745e-06    1.0057996e-17    8.1033243e-18    6.3977015e-18    1.9697512e-05   -1.3787519e-05    1.7726605e-05   -2.3630788e-05    6.8948246e-18   -7.6662745e-06    6.2676977e-06   -5.5711625e-06    1.0380664e-17    6.9631960e-06    8.7981039e-18    7.2069244e-18    1.5757196e-05    1.7726605e-05   -2.1664266e-05   -1.1817880e-05    1.1006824e-17   -6.9631960e-06    6.4374942e-18    6.2676977e-06   -4.8747893e-06    5.5711625e-06    7.9589399e-18    9.5883170e-18    1.3787519e-05   -9.8482005e-06   -1.9697512e-05    1.5757196e-05   -4.1783874e-06   -6.2676977e-06    1.1249906e-17    5.5711625e-06    7.0391184e-18    4.8747893e-06    8.5904485e-18    1.0806452e-17   -7.8786470e-06    1.3787519e-05    1.1817880e-05   -1.7726605e-05   -3.4819873e-06    8.0497818e-18    4.1783874e-06    1.0948380e-17    4.8747893e-06   -5.5711625e-06    1.1308083e-17    9.9066227e-18    9.8482005e-06    1.1817880e-05   -5.9097993e-06   -1.5757196e-05    7.2282888e-18   -4.8747893e-06   -2.7855313e-06    1.1946648e-17    4.1783874e-06    3.4819873e-06    1.0089858e-17    1.0237743e-17   -3.9352044e-06    7.8786470e-06   -1.3787519e-05    9.8482005e-06   -2.0900761e-06    3.4819873e-06    1.2284327e-17    8.5834605e-18    2.7855313e-06   -4.1783874e-06    9.4476186e-18    1.0541818e-17   -1.9096392e-06    5.9097993e-06    7.8786470e-06   -1.1817880e-05    2.7855313e-06   -3.4819873e-06   -1.3894135e-06    1.2052883e-17    2.0900761e-06    1.0075435e-17    1.0262688e-17    1.0440451e-17   -6.9587463e-07    3.9352044e-06   -9.8482005e-06    5.9097993e-06    2.0900761e-06   -6.7122033e-07    1.1608205e-17    1.3894135e-06    9.3624843e-18   -2.7855313e-06    9.5933496e-18    9.0779524e-18   -2.8615523e-07    3.9352044e-06    1.9096392e-06    1.2139915e-17   -7.8786470e-06    6.7122033e-07   -2.0900761e-06    1.0374063e-17    1.3894135e-06    9.0176947e-18    1.0682734e-17    6.9587463e-07    1.9096392e-06    2.8615523e-07   -5.9097993e-06    1.1150332e-17    1.1240632e-17    6.7122033e-07   -1.3894135e-06    1.0357139e-17    6.9587463e-07    2.8615523e-07   -3.9352044e-06   -6.7122033e-07    1.1296514e-17    1.0425127e-17    1.0791365e-17   -2.8615523e-07   -1.9096392e-06   -6.9587463e-07
            </DataArray>
            <DataArray type="Float64" Name="fy" NumberOfComponents="1" format="ascii">
               1.1036400e+02    1.5765167e-14    8.9157440e+01    2.4870525e-03   -1.1036400e+02   -8.9157440e+01    4.7579315e-03   -3.0690602e-03   -1.0223766e-13   -1.9855992e-13   -1.1036400e+02    3.1170819e-03   -2.4870525e-03   -8.9157440e+01    2.9625608e-14   -3.1861628e-03    3.0690602e-03    1.6686652e-13   -1.0802817e-12    4.2415422e-04    8.9157440e+01   -4.7579315e-03   -2.4870525e-03    2.0516921e-13   -2.8522338e-03    9.0795427e-15    3.0690602e-03    3.1861628e-03   -1.1081379e-12   -4.2581910e-13    1.1036400e+02    5.1406507e-05   -3.1170819e-03   -4.7579315e-03   -8.5257820e-04    2.8522338e-03    3.1861628e-03   -1.9627355e-13   -3.0690602e-03    9.3380165e-14   -3.0004471e-13   -4.5136117e-13   -4.2415422e-04    2.4870525e-03    1.0826320e-05   -3.1170819e-03    6.3074546e-15   -3.1861628e-03   -2.4143152e-05    2.8522338e-03    1.8124391e-14    8.5257820e-04   -1.8873791e-14   -3.2375491e-13    6.3169404e-07    4.7579315e-03   -5.1406507e-05   -4.2415422e-04    8.5257820e-04   -5.7592819e-16   -4.4554638e-14   -2.8522338e-03   -1.9739216e-06    2.4143152e-05   -8.3821838e-15   -4.5893844e-14   -5.1406507e-05   -1.0826320e-05   -2.2427806e-15    3.1170819e-03    1.9739216e-06   -8.5257820e-04    2.4143152e-05    5.2534366e-14   -4.1340195e-14   -1.9123920e-07   -8.8540286e-15   -1.9768909e-14   -1.0826320e-05   -6.3169398e-07    1.1403205e-14    4.2415422e-04    3.9204751e-16   -3.3076406e-14    1.9739214e-06    7.5772721e-15   -2.4143152e-05    1.9123922e-07    1.5066073e-14    3.1794012e-14   -6.3169404e-07    3.3999713e-14    5.1406507e-05   -3.5677624e-14   -1.9739216e-06    1.8873791e-15   -3.4804624e-14   -3.5735304e-16   -6.8851175e-15    1.9123924e-07    1.6983810e-14    3.7497783e-14   -7.6683451e-15   -1.6655947e-14   -2.0667062e-15    1.0826320e-05   -1.9123934e-07    6.4288852e-15    2.8296809e-14   -3.6391029e-14    1.8346435e-14    4.9862892e-14   -7.9080839e-14    4.9359822e-14    1.8467866e-14   -3.7116143e-14    6.3169409e-07    3.2552953e-14   -3.1894626e-14   -1.0548853e-14   -1.2921782e-13    4.2020207e-14   -2.0046464e-14    2.1815882e-14    9.0445013e-14   -4.2577053e-14   -2.0566882e-14   -5.0316522e-14   -3.2277132e-14   -6.6630729e-15    1.0021498e-13    1.3541251e-14   -6.8738418e-14    6.9024647e-15   -1.0742622e-13   -8.4690935e-14    1.5244229e-13    8.8401508e-15   -3.2861734e-14    3.5599128e-14    4.5505266e-14   -1.4480604e-13   -1.3786888e-13    3.2786274e-16    1.0827277e-13   -8.1492105e-14    1.2050604e-13   -1.6741816e-14    6.9265774e-14    1.9486322e-13   -7.9915241e-14   -8.5200076e-14   -9.9954767e-15    1.1312132e-14    2.5162164e-14    6.0888794e-16    1.1596626e-14   -1.2546388e-13   -3.6110871e-14   -2.7810219e-14    5.6621374e-15    1.6304232e-13    6.2427494e-14    1.1801324e-14   -7.6524724e-14   -2.1615522e-14   -9.4630033e-14   -2.3967807e-14   -2.8421709e-14    3.8903776e-14    2.7313221e-14   -5.2432017e-14    1.5137110e-13    5.1495266e-14    1.3295268e-13    2.2521915e-14    5.3216112e-14    9.7672738e-14   -8.8569777e-14    2.4364191e-14    1.3635794e-14    6.0074341e-14    9.9122099e-15    8.6649438e-14    2.8520675e-13   -1.5374160e-13    9.5998730e-14    7.5772721e-14   -1.1674689e-15    2.9878010e-14    9.5813114e-14    2.5838706e-14    5.2863096e-14   -1.8456937e-13   -1.1586695e-13    1.5258107e-13    1.4054469e-13   -7.6143952e-14    1.0160362e-13    9.8186216e-14   -1.5082553e-14   -2.1306741e-13   -6.0917417e-14    2.9104323e-15    6.7035787e-14   -5.6506449e-14   -1.4744694e-13   -3.8700813e-14    5.9654538e-14   -1.5363145e-14   -2.6204697e-14    1.3462322e-14   -1.0536017e-13    4.3107011e-14   -1.9054810e-13    5.2602020e-14   -7.5677312e-15   -1.0418662e-13    5.3589078e-14   -2.0167461e-14   -2.3281420e-13   -5.1614095e-14    9.1390871e-14   -2.8818961e-14    2.0856580e-14   -8.4849554e-14   -3.0392355e-14   -8.3217721e-14    1.3384270e-13    5.9231266e-14   -1.7013214e-13    2.0766548e-13   -9.5096890e-14    2.8720787e-14    1.9604110e-14    3.0095284e-14   -1.2932710e-13   -1.3477967e-13    1.2865577e-14   -2.5081933e-14    2.3061544e-13    7.1274150e-14    6.4685019e-14    1.0927674e-13   -4.3402781e-14    6.0877085e-14   -2.6784130e-14   -1.1501427e-14   -2.5189703e-14    2.8941693e-14   -9.9549709e-14   -5.7390290e-14
            </DataArray>
            <DataArray type="Float64" Name="uz" NumberOfComponents="1" format="ascii">