<?xml version="1.0"?>
<VTKFile type="UnstructuredGrid" version="0.1" byte_order="LittleEndian">
   <UnstructuredGrid>
      <Piece NumberOfPoints="252" NumberOfCells="120">
         <Points>
            <DataArray type="Float64" NumberOfComponents="3" format="ascii">
               0.0000000e+00     0.0000000e+00     0.0000000e+00
               0.0000000e+00     5.0000000e-02     0.0000000e+00
               0.0000000e+00     0.0000000e+00     3.3333330e-02
               5.0000000e-02     0.0000000e+00     0.0000000e+00
               0.0000000e+00     1.0000000e-01     0.0000000e+00
               0.0000000e+00     0.0000000e+00     6.6666670e-02
               1.0000000e-01     0.0000000e+00     0.0000000e+00
               5.0000000e-02     0.0000000e+00     3.3333330e-02
               0.0000000e+00     5.0000000e-02     3.3333330e-02
               5.0000000e-02     5.0000000e-02     0.0000000e+00
               0.0000000e+00     0.0000000e+00     1.0000000e-01
               1.5000000e-01     0.0000000e+00     0.0000000e+00
               5.0000000e-02     1.0000000e-01     0.0000000e+00
               0.0000000e+00     1.0000000e-01     3.3333330e-02
               1.0000000e-01     5.0000000e-02     0.0000000e+00
               1.0000000e-01     0.0000000e+00     3.3333330e-02
               5.0000000e-02     0.0000000e+00     6.6666670e-02
               0.0000000e+00     5.0000000e-02     6.6666670e-02
               5.0000000e-02     5.0000000e-02     3.3333330e-02
               2.0000000e-01     0.0000000e+00     0.0000000e+00
               0.0000000e+00     1.0000000e-01     6.6666670e-02
               1.0000000e-01     1.0000000e-01     0.0000000e+00
               5.0000000e-02     0.0000000e+00     1.0000000e-01
               0.0000000e+00     5.0000000e-02     1.0000000e-01
               1.5000000e-01     0.0000000e+00     3.3333330e-02
               1.5000000e-01     5.0000000e-02     0.0000000e+00
               5.0000000e-02     1.0000000e-01     3.3333330e-02
               1.0000000e-01     0.0000000e+00     6.6666670e-02
               5.0000000e-02     5.0000000e-02     6.6666670e-02
               1.0000000e-01     5.0000000e-02     3.3333330e-02
               0.0000000e+00     1.0000000e-01     1.0000000e-01
               2.5000000e-01     0.0000000e+00     0.0000000e+00
               1.5000000e-01     1.0000000e-01     0.0000000e+00
               1.0000000e-01     0.0000000e+00     1.0000000e-01
               2.0000000e-01     0.0000000e+00     3.3333330e-02
               1.5000000e-01     0.0000000e+00     6.6666670e-02
               1.0000000e-01     1.0000000e-01     3.3333330e-02
               5.0000000e-02     5.0000000e-02     1.0000000e-01
               5.0000000e-02     1.0000000e-01     6.6666670e-02
               2.0000000e-01     5.0000000e-02     0.0000000e+00
               1.5000000e-01     5.0000000e-02     3.3333330e-02
               1.0000000e-01     5.0000000e-02     6.6666670e-02
               2.0000000e-01     1.0000000e-01     0.0000000e+00
               5.0000000e-02     1.0000000e-01     1.0000000e-01
               3.0000000e-01     0.0000000e+00     0.0000000e+00
               1.5000000e-01     0.0000000e+00     1.0000000e-01
               1.0000000e-01     5.0000000e-02     1.0000000e-01
               1.0000000e-01     1.0000000e-01     6.6666670e-02
               2.5000000e-01     0.0000000e+00     3.3333330e-02
               1.5000000e-01     1.0000000e-01     3.3333330e-02
               2.5000000e-01     5.0000000e-02     0.0000000e+00
               2.0000000e-01     0.0000000e+00     6.6666670e-02
               2.0000000e-01     5.0000000e-02     3.3333330e-02
               1.5000000e-01     5.0000000e-02     6.6666670e-02
               3.5000000e-01     0.0000000e+00     0.0000000e+00
               1.0000000e-01     1.0000000e-01     1.0000000e-01
               2.5000000e-01     1.0000000e-01     0.0000000e+00
               2.0000000e-01     0.0000000e+00     1.0000000e-01
               2.0000000e-01     1.0000000e-01     3.3333330e-02
               3.0000000e-01     5.0000000e-02     0.0000000e+00
               1.5000000e-01     5.0000000e-02     1.0000000e-01
               1.5000000e-01     1.0000000e-01     6.6666670e-02
               3.0000000e-01     0.0000000e+00     3.3333330e-02
               2.5000000e-01     0.0000000e+00     6.6666670e-02
               2.5000000e-01     5.0000000e-02     3.3333330e-02
               2.0000000e-01     5.0000000e-02     6.6666670e-02
               2.5000000e-01     0.0000000e+00     1.0000000e-01
               3.0000000e-01     1.0000000e-01     0.0000000e+00
               4.0000000e-01     0.0000000e+00     0.0000000e+00
               1.5000000e-01     1.0000000e-01     1.0000000e-01
               3.0000000e-01     0.0000000e+00     6.6666670e-02
               2.0000000e-01     1.0000000e-01     6.6666670e-02
               2.5000000e-01     1.0000000e-01     3.3333330e-02
               2.0000000e-01     5.0000000e-02     1.0000000e-01
               3.5000000e-01     5.0000000e-02     0.0000000e+00
               3.5000000e-01     0.0000000e+00     3.3333330e-02
               2.5000000e-01     5.0000000e-02     6.6666670e-02
               3.0000000e-01     5.0000000e-02     3.3333330e-02
               3.0000000e-01     0.0000000e+00     1.0000000e-01
               3.5000000e-01     1.0000000e-01     0.0000000e+00
               4.5000000e-01     0.0000000e+00     0.0000000e+00
               2.0000000e-01     1.0000000e-01     1.0000000e-01
               4.0000000e-01     0.0000000e+00     3.3333330e-02
               4.0000000e-01     5.0000000e-02     0.0000000e+00
               3.0000000e-01     1.0000000e-01     3.3333330e-02
               2.5000000e-01     5.0000000e-02     1.0000000e-01
               2.5000000e-01     1.0000000e-01     6.6666670e-02
               3.5000000e-01     0.0000000e+00     6.6666670e-02
               3.0000000e-01     5.0000000e-02     6.6666670e-02
               3.5000000e-01     5.0000000e-02     3.3333330e-02
               3.5000000e-01     0.0000000e+00     1.0000000e-01
               5.0000000e-01     0.0000000e+00     0.0000000e+00
               2.5000000e-01     1.0000000e-01     1.0000000e-01
               4.0000000e-01     1.0000000e-01     0.0000000e+00
               3.0000000e-01     1.0000000e-01     6.6666670e-02
               4.0000000e-01     0.0000000e+00     6.6666670e-02
               4.5000000e-01     5.0000000e-02     0.0000000e+00
               4.5000000e-01     0.0000000e+00     3.3333330e-02
               3.0000000e-01     5.0000000e-02     1.0000000e-01
               3.5000000e-01     1.0000000e-01     3.3333330e-02
               3.5000000e-01     5.0000000e-02     6.6666670e-02
               4.0000000e-01     5.0000000e-02     3.3333330e-02
               4.5000000e-01     1.0000000e-01     0.0000000e+00
               5.5000000e-01     0.0000000e+00     0.0000000e+00
               4.0000000e-01     0.0000000e+00     1.0000000e-01
               3.0000000e-01     1.0000000e-01     1.0000000e-01
               3.5000000e-01     1.0000000e-01     6.6666670e-02
               4.0000000e-01     1.0000000e-01     3.3333330e-02
               5.0000000e-01     5.0000000e-02     0.0000000e+00
               4.5000000e-01     0.0000000e+00     6.6666670e-02
               5.0000000e-01     0.0000000e+00     3.3333330e-02
               3.5000000e-01     5.0000000e-02     1.0000000e-01
               4.5000000e-01     5.0000000e-02     3.3333330e-02
               4.0000000e-01     5.0000000e-02     6.6666670e-02
               4.5000000e-01     0.0000000e+00     1.0000000e-01
               5.0000000e-01     1.0000000e-01     0.0000000e+00
               3.5000000e-01     1.0000000e-01     1.0000000e-01
               6.0000000e-01     0.0000000e+00     0.0000000e+00
               4.0000000e-01     1.0000000e-01     6.6666670e-02
               5.5000000e-01     0.0000000e+00     3.3333330e-02
               5.0000000e-01     0.0000000e+00     6.6666670e-02
               4.0000000e-01     5.0000000e-02     1.0000000e-01
               4.5000000e-01     1.0000000e-01     3.3333330e-02
               5.5000000e-01     5.0000000e-02     0.0000000e+00
               5.0000000e-01     5.0000000e-02     3.3333330e-02
               4.5000000e-01     5.0000000e-02     6.6666670e-02
               5.0000000e-01     0.0000000e+00     1.0000000e-01
               6.5000000e-01     0.0000000e+00     0.0000000e+00
               5.5000000e-01     1.0000000e-01     0.0000000e+00
               4.0000000e-01     1.0000000e-01     1.0000000e-01
               4.5000000e-01     5.0000000e-02     1.0000000e-01
               4.5000000e-01     1.0000000e-01     6.6666670e-02
               5.5000000e-01     0.0000000e+00     6.6666670e-02
               6.0000000e-01     0.0000000e+00     3.3333330e-02
               6.0000000e-01     5.0000000e-02     0.0000000e+00
               5.0000000e-01     1.0000000e-01     3.3333330e-02
               5.5000000e-01     5.0000000e-02     3.3333330e-02
               5.0000000e-01     5.0000000e-02     6.6666670e-02
               6.0000000e-01     1.0000000e-01     0.0000000e+00
               5.5000000e-01     0.0000000e+00     1.0000000e-01
               4.5000000e-01     1.0000000e-01     1.0000000e-01
               7.0000000e-01     0.0000000e+00     0.0000000e+00
               6.5000000e-01     5.0000000e-02     0.0000000e+00
               5.0000000e-01     1.0000000e-01     6.6666670e-02
               5.0000000e-01     5.0000000e-02     1.0000000e-01
               5.5000000e-01     1.0000000e-01     3.3333330e-02
               6.5000000e-01     0.0000000e+00     3.3333330e-02
               6.0000000e-01     0.0000000e+00     6.6666670e-02
               5.5000000e-01     5.0000000e-02     6.6666670e-02
[...]
         <PointData>
            <DataArray type="Int32" Name="node-id" NumberOfComponents="1" format="ascii">
               1  2  3  4  5  6  7  8  9  10  11  12  13  14  15  16  17  18  19  20  21  22  23  24  25  26  27  28  29  30  31  32  33  34  35  36  37  38  39  40  41  42  43  44  45  46  47  48  49  50  51  52  53  54  55  56  57  58  59  60  61  62  63  64  65  66  67  68  69  70  71  72  73  74  75  76  77  78  79  80  81  82  83  84  85  86  87  88  89  90  91  92  93  94  95  96  97  98  99  100  101  102  103  104  105  106  107  108  109  110  111  112  113  114  115  116  117  118  119  120  121  122  123  124  125  126  127  128  129  130  131  132  133  134  135  136  137  138  139  140  141  142  143  144  145  146  147  148  149  150  151  152  153  154  155  156  157  158  159  160  161  162  163  164  165  166  167  168  169  170  171  172  173  174  175  176  177  178  179  180  181  182  183  184  185  186  187  188  189  190  191  192  193  194  195  196  197  198  199  200  201  202  203  204  205  206  207  208  209  210  211  212  213  214  215  216  217  218  219  220  221  222  223  224  225  226  227  228  229  230  231  232  233  234  235  236  237  238  239  240  241  242  243  244  245  246  247  248  249  250  251  252  
            </DataArray>
            <DataArray type="Float64" Name="ux" NumberOfComponents="1" format="ascii">
               0.0000000e+00    0.0000000e+00    0.0000000e+00   -1.4312698e-04    0.0000000e+00    0.0000000e+00   -2.7969448e-04   -4.6419667e-05    0.0000000e+00   -1.4000050e-04    0.0000000e+00   -4.1090575e-04   -1.4312698e-04    0.0000000e+00   -2.8023007e-04   -9.2612150e-05    4.6419667e-05    0.0000000e+00   -4.4293531e-05   -5.3444324e-04    0.0000000e+00   -2.7969448e-04    1.4312698e-04    0.0000000e+00   -1.3603921e-04   -4.1130470e-04   -4.6419667e-05    9.2612150e-05    4.4293531e-05   -9.2919698e-05    0.0000000e+00   -6.5049861e-04   -4.1090575e-04    2.7969448e-04   -1.7729033e-04    1.3603921e-04   -9.2612150e-05    1.4000050e-04    4.6419667e-05   -5.3480529e-04   -1.3631297e-04    9.2919698e-05   -5.3444324e-04    1.4312698e-04   -7.5906329e-04    4.1090575e-04    2.8023007e-04    9.2612150e-05   -2.1596337e-04   -1.3603921e-04   -6.5086118e-04    1.7729033e-04   -1.7751030e-04    1.3631297e-04   -8.6014211e-04    2.7969448e-04   -6.5049861e-04    5.3444324e-04   -1.7729033e-04   -7.5942773e-04    4.1130470e-04    1.3603921e-04   -2.5215346e-04    2.1596337e-04   -2.1619434e-04    1.7751030e-04    6.5049861e-04   -7.5906329e-04   -9.5373328e-04    4.1090575e-04    2.5215346e-04    1.7729033e-04   -2.1596337e-04    5.3480529e-04   -8.6050603e-04   -2.8584609e-04    2.1619434e-04   -2.5238268e-04    7.5906329e-04   -8.6014211e-04   -1.0398373e-03    5.3444324e-04   -3.1704322e-04   -9.5409731e-04   -2.5215346e-04    6.5086118e-04    2.1596337e-04    2.8584609e-04    2.5238268e-04   -2.8607566e-04    8.6014211e-04   -1.1184538e-03    6.5049861e-04   -9.5373328e-04    2.5215346e-04    3.1704322e-04   -1.0402013e-03   -3.4574451e-04    7.5942773e-04   -2.8584609e-04    2.8607566e-04   -3.1727270e-04   -1.0398373e-03   -1.1895832e-03    9.5373328e-04    7.5906329e-04    2.8584609e-04   -3.1704322e-04   -1.1188178e-03    3.4574451e-04   -3.7195007e-04    8.6050603e-04   -3.4597403e-04    3.1727270e-04    1.0398373e-03   -1.1184538e-03    8.6014211e-04   -1.2532253e-03    3.1704322e-04   -3.9565985e-04    3.7195007e-04    9.5409731e-04   -3.4574451e-04   -1.1899472e-03   -3.7217958e-04    3.4597403e-04    1.1184538e-03   -1.3093799e-03   -1.1895832e-03    9.5373328e-04    1.0402013e-03    3.4574451e-04    3.9565985e-04   -4.1687387e-04   -1.2535893e-03   -3.7195007e-04   -3.9588936e-04    3.7217958e-04   -1.2532253e-03    1.1895832e-03    1.0398373e-03   -1.3580474e-03   -1.3097440e-03    3.7195007e-04    1.1188178e-03   -3.9565985e-04   -4.3559211e-04    4.1687387e-04    3.9588936e-04   -4.1710338e-04   -1.3093799e-03   -1.3992275e-03    1.1184538e-03    1.2532253e-03   -4.5181462e-04    3.9565985e-04   -1.3584114e-03   -4.1687387e-04    1.1899472e-03    4.3559211e-04    4.1710338e-04   -4.3582162e-04   -1.4329205e-03    1.3093799e-03   -1.3580474e-03    1.1895832e-03   -4.6554132e-04    1.2535893e-03    4.5181462e-04   -1.3995916e-03   -4.3559211e-04    4.1687387e-04   -4.5204413e-04    4.3582162e-04   -1.3992275e-03    1.3580474e-03   -1.4591261e-03    1.2532253e-03    1.3097440e-03    4.3559211e-04   -4.7677240e-04   -1.4332844e-03   -4.5181462e-04    4.6554132e-04    4.5204413e-04   -4.6577083e-04   -1.4778373e-03   -1.4329205e-03    1.3093799e-03    1.3992275e-03   -4.8550690e-04   -4.6554132e-04   -1.4594900e-03    1.3584114e-03    4.7677240e-04    4.5181462e-04    4.6577083e-04   -4.7700168e-04   -1.4891179e-03   -1.4591261e-03    1.4329205e-03    1.3580474e-03   -4.7677240e-04    4.6554132e-04   -4.9174554e-04   -1.4782145e-03    4.8550690e-04    1.3995916e-03    4.7700168e-04   -4.8573731e-04   -1.4929732e-03   -1.4778373e-03    1.3992275e-03    1.4591261e-03   -4.8550690e-04   -4.9551018e-04   -1.4893857e-03    4.9174554e-04    1.4332844e-03    4.7677240e-04   -4.9197866e-04    4.8573731e-04   -4.9680355e-04    1.4778373e-03   -1.4891179e-03   -1.4931187e-03    1.4329205e-03    4.9551018e-04    4.8550690e-04    1.4594900e-03   -4.9174554e-04    4.9197866e-04   -4.9569400e-04   -1.4929732e-03    1.4891179e-03    4.9680355e-04    1.4591261e-03   -4.9693679e-04    1.4782145e-03   -4.9551018e-04    4.9174554e-04    4.9569400e-04    1.4929732e-03   -4.9680355e-04    1.4778373e-03    4.9551018e-04    1.4893857e-03    4.9693679e-04    1.4931187e-03    4.9680355e-04    1.4891179e-03    1.4929732e-03
            </DataArray>
            <DataArray type="Float64" Name="fx" NumberOfComponents="1" format="ascii">
               2.3108733e+02    4.4063617e+02    1.6263940e+02    1.6875390e-14    2.3108733e+02   -1.6263940e+02    4.4408921e-15    1.9984014e-15    2.9979037e+02    5.3290705e-15   -2.3108733e+02    1.6875390e-14    1.3322676e-14    1.6263940e+02    2.1316282e-14   -8.8817842e-16   -3.5527137e-15   -2.9979037e+02   -2.7089442e-14    1.2878587e-14   -1.6263940e+02   -1.6875390e-14    2.6645353e-15   -4.4063617e+02   -1.0658141e-14    4.8405724e-14   -1.9984014e-14   -4.4408921e-16   -4.8849813e-15    6.2394534e-14   -2.3108733e+02   -2.0872193e-14    9.7699626e-15    8.8817842e-15   -1.9317881e-14    1.5765167e-14   -1.8429702e-14    1.5099033e-14   -8.2156504e-15    3.6859404e-14    1.1768364e-14    1.9984014e-14    6.9722006e-14   -2.6645353e-15    5.1514348e-14    6.9277917e-14   -5.3290705e-15    6.6613381e-16   -9.5479180e-15   -2.2204460e-14    1.1723955e-13    3.1752379e-14    3.6637360e-14   -2.9309888e-14    1.8651747e-14   -1.5099033e-14   -1.3322676e-13    4.5741189e-14    4.4408921e-14    2.4158453e-13   -3.1530334e-14   -4.0412118e-14   -2.1094237e-15   -2.5535130e-14   -8.7152507e-14   -1.3544721e-14   -3.5527137e-14   -4.7961635e-14    6.6169292e-14   -2.0872193e-14   -1.6653345e-14   -1.6209256e-14    6.0396133e-14    1.3322676e-15    6.0840222e-14   -4.9182880e-14   -1.7097435e-14    2.3137048e-13   -9.0594199e-14   -1.8163249e-13    2.2470914e-13    3.2418512e-14   -4.4075854e-14   -2.0916602e-13    9.8920871e-14   -3.8635761e-14   -2.7311486e-14   -3.2640557e-14   -2.1782576e-13   -1.4754864e-13    1.1546319e-14   -1.4876989e-13   -5.5955240e-14    1.1857182e-13    7.9491969e-14   -2.4424907e-14   -3.7303494e-14    1.3322676e-15   -7.8159701e-14   -2.5757174e-14   -5.8175686e-14   -5.7465144e-13    1.6564528e-13    3.0464520e-13   -5.5955240e-14   -8.1268325e-14   -6.2616579e-14   -1.2900792e-13    4.6584958e-13    3.1263880e-13   -7.5495166e-14   -2.1316282e-14   -1.6830981e-13   -6.6169292e-14    4.5297099e-14    1.8651747e-14    1.2390089e-13    2.7089442e-14    1.5432100e-13   -2.6023628e-13    2.6412206e-13   -2.0694557e-13   -1.2467805e-13   -1.0569323e-13    5.2957638e-13    1.6386892e-13   -7.9047879e-14    1.0214052e-14   -2.3470115e-13   -1.6431301e-13    2.4025226e-13    2.9531932e-14   -9.3036689e-14    1.0458301e-13    8.9772634e-13    3.8280490e-13   -4.9626969e-13    1.3178347e-13   -1.1746160e-13   -1.6697754e-13    4.0856207e-14   -1.3722357e-13   -9.3214325e-13   -7.4495965e-14   -9.8587805e-14    2.6911806e-13    3.2751579e-13    7.2164497e-14   -1.8962609e-13    5.6554761e-13    3.6948222e-13    8.3488771e-14   -1.5676349e-13    1.4210855e-13   -2.2570834e-13    7.4495965e-14   -9.8099306e-13   -2.6645353e-13    2.3581137e-13   -1.6209256e-14   -3.8535841e-13   -3.8447023e-13   -1.1102230e-16   -2.7355895e-13    5.2180482e-14    5.2180482e-14    1.8240964e-13   -2.1183055e-13   -9.3924868e-14    3.8880010e-13   -2.3270275e-13   -5.6887828e-13    8.7685414e-13    3.2973624e-13    5.2380322e-13   -3.3617553e-13    4.8128168e-13   -2.0761171e-13    5.4867222e-13   -3.4150460e-13   -1.8607338e-13   -1.0150769e-12    3.5738079e-13   -8.0935258e-14    9.7366559e-14   -5.0309756e-13    6.8167694e-13   -1.3067325e-13   -9.0372154e-14   -1.2012613e-13   -2.5113245e-13    6.2139183e-13    7.3840933e-13   -1.5316637e-12    2.3564484e-13   -2.7389202e-13   -3.9968029e-13    8.4560137e-13   -4.6870841e-13    2.0161650e-13   -3.0320191e-13   -3.0597747e-13    4.4025894e-13    8.0879747e-14    3.1358249e-13    1.1220469e-12   -6.2808092e-13   -9.6633812e-13   -6.6463501e-13   -6.6130434e-13   -5.0215387e-13    3.8891113e-13    5.0737192e-13   -3.0930813e-13   -3.6254333e-13   -4.1466830e-14    8.6319840e-15    1.1139700e-13    8.1945561e-13   -1.4688251e-13    5.8092420e-13    1.5634716e-13    8.3322238e-14    4.6690429e-13    2.5077163e-13   -1.1887713e-13    2.3891999e-13    6.3855865e-13    7.8476114e-13   -2.4569236e-13    5.3645977e-13   -1.3610293e-12    1.1964596e-12    9.0032148e-15   -4.0245585e-13    1.8443580e-13   -4.7317705e-13   -6.6902039e-13   -1.6409651e-12    1.0235424e-12   -7.7143847e-13    1.2965809e-12   -3.0507975e-13   -4.1580628e-13    2.8349545e-13    2.4696911e-13    2.7552960e-13    2.0020652e-12   -5.1795374e-14    4.5347059e-13   -9.1807117e-13    6.5319972e-13
            </DataArray>
            <DataArray type="Float64" Name="uy" NumberOfComponents="1" format="ascii">
               0.0000000e+00    0.0000000e+00    0.0000000e+00   -2.6934844e-05    0.0000000e+00    0.0000000e+00   -2.5103493e-05   -9.6461627e-06    0.0000000e+00    1.3365823e-17    0.0000000e+00   -2.3557091e-05    2.6934844e-05    0.0000000e+00    5.5983485e-17   -8.9633868e-06    9.6461627e-06    0.0000000e+00    1.4364880e-17   -2.2158210e-05    0.0000000e+00    2.5103493e-05    2.6934844e-05    0.0000000e+00   -8.2985971e-06    1.2280775e-16    9.6461627e-06    8.9633868e-06    1.3264475e-17    5.5973075e-17    0.0000000e+00   -2.0783287e-05    2.3557091e-05    2.5103493e-05   -7.8411167e-06    8.2985971e-06    8.9633868e-06    1.0013092e-17   -9.6461627e-06    2.1232073e-16    1.2150610e-16    5.3724530e-17    2.2158210e-05   -2.6934844e-05   -1.9395762e-05    2.3557091e-05    4.9242836e-17   -8.9633868e-06   -7.3468750e-06    8.2985971e-06    3.2253090e-16    7.8411167e-06    2.0972331e-16    1.1814377e-16   -1.8010616e-05   -2.5103493e-05    2.0783287e-05    2.2158210e-05    7.8411167e-06    4.5159006e-16    1.1274645e-16   -8.2985971e-06   -6.8579261e-06    7.3468750e-06    3.1871589e-16    2.0524619e-16    2.0783287e-05    1.9395762e-05   -1.6625148e-05   -2.3557091e-05    6.8579261e-06   -7.8411167e-06    7.3468750e-06    1.9887066e-16    5.9787074e-16   -6.3678781e-06    3.1311195e-16    4.4659542e-16    1.9395762e-05    1.8010616e-05   -1.5239725e-05   -2.2158210e-05   -5.8780779e-06    7.5954583e-16    6.8579261e-06    3.0582784e-16   -7.3468750e-06    6.3678781e-06    4.3998076e-16    5.9163076e-16    1.8010616e-05   -1.3854295e-05   -2.0783287e-05    1.6625148e-05   -6.8579261e-06    5.8780779e-06    9.3490235e-16   -5.3882327e-06    4.3176830e-16    6.3678781e-06    5.8406935e-16    7.5200395e-16    1.5239725e-05   -1.2468865e-05    1.6625148e-05   -1.9395762e-05   -6.3678781e-06    5.8780779e-06    1.1219589e-15    5.3882327e-06   -4.8983939e-06    5.7504479e-16    9.2591850e-16    7.4336379e-16    1.5239725e-05    1.3854295e-05   -1.8010616e-05   -1.1083436e-05   -5.8780779e-06   -4.4085546e-06    4.8983939e-06    7.3396088e-16    5.3882327e-06    1.3186719e-15    1.1123910e-15    9.1654142e-16    1.3854295e-05   -9.6980066e-06    1.2468865e-05   -1.6625148e-05    9.0628767e-16   -5.3882327e-06    4.4085546e-06   -3.9187153e-06    1.5233316e-15    4.8983939e-06    1.3082881e-15    1.1017396e-15    1.1083436e-05    1.2468865e-05   -1.5239725e-05   -8.3125788e-06    1.7347923e-15   -4.8983939e-06    1.0906094e-15    4.4085546e-06   -3.4288757e-06    3.9187153e-06    1.2975529e-15    1.5132306e-15    9.6980066e-06   -6.9271264e-06   -1.3854295e-05    1.1083436e-05   -2.9390367e-06   -4.4085546e-06    1.9509128e-15    3.9187153e-06    1.2857100e-15    3.4288757e-06    1.5022329e-15    1.7250012e-15   -5.5417618e-06    9.6980066e-06    8.3125788e-06   -1.2468865e-05   -2.4491953e-06    1.4907550e-15    2.9390367e-06    2.1703138e-15    3.4288757e-06   -3.9187153e-06    1.9417623e-15    1.7145169e-15    6.9271264e-06    8.3125788e-06   -4.1568937e-06   -1.1083436e-05    1.7026481e-15   -3.4288757e-06   -1.9593149e-06    2.3932787e-15    2.9390367e-06    2.4491953e-06    1.9320303e-15    2.1619671e-15   -2.7679835e-06    5.5417618e-06   -9.6980066e-06    6.9271264e-06   -1.4701387e-06    2.4491953e-06    2.6174366e-15    1.9211105e-15    1.9593149e-06   -2.9390367e-06    2.1530119e-15    2.3854381e-15   -1.3432212e-06    4.1568937e-06    5.5417618e-06   -8.3125788e-06    1.9593149e-06   -2.4491953e-06   -9.7729958e-07    2.8421214e-15    1.4701387e-06    2.1445695e-15    2.3778034e-15    2.6104230e-15   -4.8947129e-07    2.7679835e-06   -6.9271264e-06    4.1568937e-06    1.4701387e-06   -4.7212970e-07    3.0657161e-15    9.7729958e-07    2.3695020e-15   -1.9593149e-06    2.8357710e-15    2.6032279e-15   -2.0127872e-07    2.7679835e-06    1.3432212e-06    3.2911618e-15   -5.5417618e-06    4.7212970e-07   -1.4701387e-06    2.5972228e-15    9.7729958e-07    2.8303326e-15    3.0623534e-15    4.8947129e-07    1.3432212e-06    2.0127874e-07   -4.1568937e-06    3.2891659e-15    2.8267967e-15    4.7212970e-07   -9.7729958e-07    3.0591690e-15    4.8947129e-07    2.0127874e-07   -2.7679835e-06   -4.7212970e-07    3.0562963e-15    3.2859917e-15    3.2849071e-15   -2.0127872e-07   -1.3432212e-06   -4.8947129e-07
            </DataArray>
            <DataArray type="Float64" Name="fy" NumberOfComponents="1" format="ascii">
               4.0954105e+01    5.4622973e-12    3.4599888e+01    4.2049697e-15   -4.0954105e+01   -3.4599888e+01   -1.2854301e-15   -6.5225603e-16    8.6219226e-12   -7.9554419e-15   -4.0954105e+01    2.3038862e-14   -2.6090241e-15   -3.4599888e+01   -2.8484159e-14    9.1870955e-15    6.0090821e-15    1.1424695e-11   -1.0692836e-14    6.8486883e-14    3.4599888e+01    9.4022012e-15    7.7993167e-15    9.0885077e-12   -2.5895952e-14    6.4458855e-14   -1.9845237e-15   -2.3245295e-15   -2.9559688e-15   -2.0733415e-14    4.0954105e+01    6.5072947e-14    2.8449465e-16    1.2264495e-15    7.0443651e-14   -8.5972895e-15   -9.0344399e-15   -5.8807126e-15    2.3106517e-15   -4.1234377e-14   -6.8833828e-15    2.2759572e-14    4.0708756e-14   -1.8457458e-15    4.5446286e-14   -1.2281842e-15    8.0040141e-15    3.3306691e-15    9.3841601e-14   -3.4278136e-14   -2.8140684e-14   -5.0418003e-14    3.8621883e-14   -2.0955460e-15   -5.9318869e-14    2.2983351e-14    5.9275501e-14    6.6509298e-15   -3.6581849e-14   -4.7545301e-14    2.2898350e-14    2.8539671e-14   -1.0096091e-14    7.2476747e-14    1.3850032e-13    8.7194141e-14    2.5717276e-14    1.1699149e-13    1.8465264e-13   -5.5719318e-15    1.4065138e-14    9.5062846e-16    5.5525029e-14   -1.0880186e-14    1.1234069e-14   -9.1468499e-14   -1.1347867e-13   -5.1979254e-14   -1.7815957e-13    1.2345854e-13   -1.2120513e-14    8.7664251e-14    5.1443572e-13    3.9347692e-13    2.5299207e-14    8.7221896e-14    1.0408341e-14    1.5477203e-13    8.3918983e-14   -5.6239735e-14   -1.4940826e-13    3.5830887e-13    1.0731520e-13    3.5846326e-14   -2.2370994e-14    1.8149371e-13    2.4332966e-13   -2.8033131e-14    6.8556272e-15    1.6175256e-13    2.1149749e-14   -5.9396932e-15    8.7050159e-14    5.3802449e-14   -1.7796528e-14    8.9804900e-14   -4.3194615e-14   -3.5305092e-13    4.0837472e-13    1.7771201e-13    4.4457493e-14    1.3238022e-13   -2.2250604e-13    3.1488701e-14   -1.4905265e-13    2.8901534e-13    2.6489227e-15    2.9277449e-13    1.1486645e-13   -1.0839940e-13    1.0889553e-13   -1.8512969e-14   -2.6645353e-14    2.5936371e-13    6.6680342e-13    2.6249836e-13    1.6141602e-14    7.5229406e-13    4.4710763e-14   -1.3084672e-13   -3.1131694e-13    6.8250960e-14    5.6246327e-13   -3.1318698e-13    6.2941492e-13   -4.9823340e-13    3.3577308e-14   -3.4389158e-14    1.9825287e-13    1.0007273e-13    5.0350349e-14    1.2770340e-13    4.8599839e-13    5.8904270e-14    3.1393638e-13   -5.4702076e-13    8.3595977e-13    5.5087185e-13   -7.1018191e-13    3.8130263e-13   -2.0875662e-14    6.2606864e-13   -9.4299568e-15   -3.9853190e-13    1.3309839e-13   -9.6027353e-14    5.2836902e-13   -1.5140666e-13   -9.5115409e-13   -1.7736160e-13    1.5511897e-13   -3.7508191e-13    4.5171505e-13    1.1447093e-13    4.0278544e-14    4.8027554e-14    4.1536219e-13    4.8073871e-13    8.2094054e-13    1.0756899e-12    3.7547743e-13    1.0670631e-13   -2.8151440e-13    2.3248417e-13    3.8260194e-13    1.5692135e-13    1.0047293e-12   -1.3938330e-13    8.1690384e-13   -6.6236600e-13    1.5129981e-12    6.2681110e-13    6.4786371e-13    3.4947045e-13    7.5318224e-13    5.4478817e-13    8.0180827e-13   -9.4028951e-14   -2.2532844e-13   -3.9533307e-13    1.3763417e-12   -6.8213490e-13    2.9305898e-13   -1.1800699e-12    5.6165749e-13   -5.2149604e-13    2.9834815e-13    1.0294838e-12    1.2752681e-12   -1.1943398e-13   -9.4270078e-14   -3.0086350e-13    1.4650781e-13    1.0330018e-12    4.5750730e-13    8.7337429e-13    6.5952192e-13   -5.1725638e-13    1.2061498e-12   -2.3323531e-13    3.0620322e-13   -1.1779987e-13   -1.1499482e-14   -5.6850358e-13    4.4622465e-13    5.2298704e-13   -1.3992627e-13    2.6453015e-13   -1.4230284e-13   -4.3370776e-13   -1.1728318e-12    1.8727034e-13    1.0972126e-15   -1.9198185e-13   -2.9742181e-13    5.5538321e-13   -1.1425583e-13    2.3437936e-13   -2.1141617e-13   -2.1644665e-13    5.3800193e-13    4.9439272e-13   -5.8702435e-13    2.6393482e-13    5.3980084e-13    2.2880049e-13   -1.8392406e-13    9.3690507e-13    1.1128459e-12    5.0911012e-13   -1.0380412e-13    9.7391973e-13    9.4417848e-14    2.7706136e-14    3.9979998e-13    2.8258472e-13   -2.3202447e-13    2.7163926e-13   -2.3316852e-14   -2.2482363e-13    3.2279041e-13    2.5969656e-13
            </DataArray>
            <DataArray type="Float64" Name="uz" NumberOfComponents="1" format="ascii">