<?xml version="1.0"?>
<VTKFile type="UnstructuredGrid" version="0.1" byte_order="LittleEndian">
   <UnstructuredGrid>
      <Piece NumberOfPoints="252" NumberOfCells="120">
         <Points>
            <DataArray type="Float64" NumberOfComponents="3" format="ascii">
               0.0000000e+00     0.0000000e+00     0.0000000e+00
               0.0000000e+00     5.0000000e-02     0.0000000e+00
               0.0000000e+00     0.0000000e+00     3.3333330e-02
               5.0000000e-02     0.0000000e+00     0.0000000e+00
               0.0000000e+00     1.0000000e-01     0.0000000e+00
               0.0000000e+00     0.0000000e+00     6.6666670e-02
               1.0000000e-01     0.0000000e+00     0.0000000e+00
               5.0000000e-02     0.0000000e+00     3.3333330e-02
               0.0000000e+00     5.0000000e-02     3.3333330e-02
               5.0000000e-02     5.0000000e-02     0.0000000e+00
               0.0000000e+00     0.0000000e+00     1.0000000e-01
               1.5000000e-01     0.0000000e+00     0.0000000e+00
               5.0000000e-02     1.0000000e-01     0.0000000e+00
               0.0000000e+00     1.0000000e-01     3.3333330e-02
               1.0000000e-01     5.0000000e-02     0.0000000e+00
               1.0000000e-01     0.0000000e+00     3.3333330e-02
               5.0000000e-02     0.0000000e+00     6.6666670e-02
               0.0000000e+00     5.0000000e-02     6.6666670e-02
               5.0000000e-02     5.0000000e-02     3.3333330e-02
               2.0000000e-01     0.0000000e+00     0.0000000e+00
               0.0000000e+00     1.0000000e-01     6.6666670e-02
               1.0000000e-01     1.0000000e-01     0.0000000e+00
               5.0000000e-02     0.0000000e+00     1.0000000e-01
               0.0000000e+00     5.0000000e-02     1.0000000e-01
               1.5000000e-01     0.0000000e+00     3.3333330e-02
               1.5000000e-01     5.0000000e-02     0.0000000e+00
               5.0000000e-02     1.0000000e-01     3.3333330e-02
               1.0000000e-01     0.0000000e+00     6.6666670e-02
               5.0000000e-02     5.0000000e-02     6.6666670e-02
               1.0000000e-01     5.0000000e-02     3.3333330e-02
               0.0000000e+00     1.0000000e-01     1.0000000e-01
               2.5000000e-01     0.0000000e+00     0.0000000e+00
               1.5000000e-01     1.0000000e-01     0.0000000e+00
               1.0000000e-01     0.0000000e+00     1.0000000e-01
               2.0000000e-01     0.0000000e+00     3.3333330e-02
               1.5000000e-01     0.0000000e+00     6.6666670e-02
               1.0000000e-01     1.0000000e-01     3.3333330e-02
               5.0000000e-02     5.0000000e-02     1.0000000e-01
               5.0000000e-02     1.0000000e-01     6.6666670e-02
               2.0000000e-01     5.0000000e-02     0.0000000e+00
               1.5000000e-01     5.0000000e-02     3.3333330e-02
               1.0000000e-01     5.0000000e-02     6.6666670e-02
               2.0000000e-01     1.0000000e-01     0.0000000e+00
               5.0000000e-02     1.0000000e-01     1.0000000e-01
               3.0000000e-01     0.0000000e+00     0.0000000e+00
               1.5000000e-01     0.0000000e+00     1.0000000e-01
               1.0000000e-01     5.0000000e-02     1.0000000e-01
               1.0000000e-01     1.0000000e-01     6.6666670e-02
               2.5000000e-01     0.0000000e+00     3.3333330e-02
               1.5000000e-01     1.0000000e-01     3.3333330e-02
               2.5000000e-01     5.0000000e-02     0.0000000e+00
               2.0000000e-01     0.0000000e+00     6.6666670e-02
               2.0000000e-01     5.0000000e-02     3.3333330e-02
               1.5000000e-01     5.0000000e-02     6.6666670e-02
               3.5000000e-01     0.0000000e+00     0.0000000e+00
               1.0000000e-01     1.0000000e-01     1.0000000e-01
               2.5000000e-01     1.0000000e-01     0.0000000e+00
               2.0000000e-01     0.0000000e+00     1.0000000e-01
               2.0000000e-01     1.0000000e-01     3.3333330e-02
               3.0000000e-01     5.0000000e-02     0.0000000e+00
               1.5000000e-01     5.0000000e-02     1.0000000e-01
               1.5000000e-01     1.0000000e-01     6.6666670e-02
               3.0000000e-01     0.0000000e+00     3.3333330e-02
               2.5000000e-01     0.0000000e+00     6.6666670e-02
               2.5000000e-01     5.0000000e-02     3.3333330e-02
               2.0000000e-01     5.0000000e-02     6.6666670e-02
               2.5000000e-01     0.0000000e+00     1.0000000e-01
               3.0000000e-01     1.0000000e-01     0.0000000e+00
               4.0000000e-01     0.0000000e+00     0.0000000e+00
               1.5000000e-01     1.0000000e-01     1.0000000e-01
               3.0000000e-01     0.0000000e+00     6.6666670e-02
               2.0000000e-01     1.0000000e-01     6.6666670e-02
               2.5000000e-01     1.0000000e-01     3.3333330e-02
               2.0000000e-01     5.0000000e-02     1.0000000e-01
               3.5000000e-01     5.0000000e-02     0.0000000e+00
               3.5000000e-01     0.0000000e+00     3.3333330e-02
               2.5000000e-01     5.0000000e-02     6.6666670e-02
               3.0000000e-01     5.0000000e-02     3.3333330e-02
               3.0000000e-01     0.0000000e+00     1.0000000e-01
               3.5000000e-01     1.0000000e-01     0.0000000e+00
               4.5000000e-01     0.0000000e+00     0.0000000e+00
               2.0000000e-01     1.0000000e-01     1.0000000e-01
               4.0000000e-01     0.0000000e+00     3.3333330e-02
               4.0000000e-01     5.0000000e-02     0.0000000e+00
               3.0000000e-01     1.0000000e-01     3.3333330e-02
               2.5000000e-01     5.0000000e-02     1.0000000e-01
               2.5000000e-01     1.0000000e-01     6.6666670e-02
               3.5000000e-01     0.0000000e+00     6.6666670e-02
               3.0000000e-01     5.0000000e-02     6.6666670e-02
               3.5000000e-01     5.0000000e-02     3.3333330e-02
               3.5000000e-01     0.0000000e+00     1.0000000e-01
               5.0000000e-01     0.0000000e+00     0.0000000e+00
               2.5000000e-01     1.0000000e-01     1.0000000e-01
               4.0000000e-01     1.0000000e-01     0.0000000e+00
               3.0000000e-01     1.0000000e-01     6.6666670e-02
               4.0000000e-01     0.0000000e+00     6.6666670e-02
               4.5000000e-01     5.0000000e-02     0.0000000e+00
               4.5000000e-01     0.0000000e+00     3.3333330e-02
               3.0000000e-01     5.0000000e-02     1.0000000e-01
               3.5000000e-01     1.0000000e-01     3.3333330e-02
               3.5000000e-01     5.0000000e-02     6.6666670e-02
               4.0000000e-01     5.0000000e-02     3.3333330e-02
               4.5000000e-01     1.0000000e-01     0.0000000e+00
               5.5000000e-01     0.0000000e+00     0.0000000e+00
               4.0000000e-01     0.0000000e+00     1.0000000e-01
               3.0000000e-01     1.0000000e-01     1.0000000e-01
               3.5000000e-01     1.0000000e-01     6.6666670e-02
               4.0000000e-01     1.0000000e-01     3.3333330e-02
               5.0000000e-01     5.0000000e-02     0.0000000e+00
               4.5000000e-01     0.0000000e+00     6.6666670e-02
               5.0000000e-01     0.0000000e+00     3.3333330e-02
               3.5000000e-01     5.0000000e-02     1.0000000e-01
               4.5000000e-01     5.0000000e-02     3.3333330e-02
               4.0000000e-01     5.0000000e-02     6.6666670e-02
               4.5000000e-01     0.0000000e+00     1.0000000e-01
               5.0000000e-01     1.0000000e-01     0.0000000e+00
               3.5000000e-01     1.0000000e-01     1.0000000e-01
               6.0000000e-01     0.0000000e+00     0.0000000e+00
               4.0000000e-01     1.0000000e-01     6.6666670e-02
               5.5000000e-01     0.0000000e+00     3.3333330e-02
               5.0000000e-01     0.0000000e+00     6.6666670e-02
               4.0000000e-01     5.0000000e-02     1.0000000e-01
               4.5000000e-01     1.0000000e-01     3.3333330e-02
               5.5000000e-01     5.0000000e-02     0.0000000e+00
               5.0000000e-01     5.0000000e-02     3.3333330e-02
               4.5000000e-01     5.0000000e-02     6.6666670e-02
               5.0000000e-01     0.0000000e+00     1.0000000e-01
               6.5000000e-01     0.0000000e+00     0.0000000e+00
               5.5000000e-01     1.0000000e-01     0.0000000e+00
               4.0000000e-01     1.0000000e-01     1.0000000e-01
               4.5000000e-01     5.0000000e-02     1.0000000e-01
               4.5000000e-01     1.0000000e-01     6.6666670e-02
               5.5000000e-01     0.0000000e+00     6.6666670e-02
               6.0000000e-01     0.0000000e+00     3.3333330e-02
               6.0000000e-01     5.0000000e-02     0.0000000e+00
               5.0000000e-01     1.0000000e-01     3.3333330e-02
               5.5000000e-01     5.0000000e-02     3.3333330e-02
               5.0000000e-01     5.0000000e-02     6.6666670e-02
               6.0000000e-01     1.0000000e-01     0.0000000e+00
               5.5000000e-01     0.0000000e+00     1.0000000e-01
               4.5000000e-01     1.0000000e-01     1.0000000e-01
               7.0000000e-01     0.0000000e+00     0.0000000e+00
               6.5000000e-01     5.0000000e-02     0.0000000e+00
               5.0000000e-01     1.0000000e-01     6.6666670e-02
               5.0000000e-01     5.0000000e-02     1.0000000e-01
               5.5000000e-01     1.0000000e-01     3.3333330e-02
               6.5000000e-01     0.0000000e+00     3.3333330e-02
               6.0000000e-01     0.0000000e+00     6.6666670e-02
               5.5000000e-01     5.0000000e-02     6.6666670e-02
[...]
         <PointData>
            <DataArray type="Int32" Name="node-id" NumberOfComponents="1" format="ascii">
               1  2  3  4  5  6  7  8  9  10  11  12  13  14  15  16  17  18  19  20  21  22  23  24  25  26  27  28  29  30  31  32  33  34  35  36  37  38  39  40  41  42  43  44  45  46  47  48  49  50  51  52  53  54  55  56  57  58  59  60  61  62  63  64  65  66  67  68  69  70  71  72  73  74  75  76  77  78  79  80  81  82  83  84  85  86  87  88  89  90  91  92  93  94  95  96  97  98  99  100  101  102  103  104  105  106  107  108  109  110  111  112  113  114  115  116  117  118  119  120  121  122  123  124  125  126  127  128  129  130  131  132  133  134  135  136  137  138  139  140  141  142  143  144  145  146  147  148  149  150  151  152  153  154  155  156  157  158  159  160  161  162  163  164  165  166  167  168  169  170  171  172  173  174  175  176  177  178  179  180  181  182  183  184  185  186  187  188  189  190  191  192  193  194  195  196  197  198  199  200  201  202  203  204  205  206  207  208  209  210  211  212  213  214  215  216  217  218  219  220  221  222  223  224  225  226  227  228  229  230  231  232  233  234  235  236  237  238  239  240  241  242  243  244  245  246  247  248  249  250  251  252  
            </DataArray>
            <DataArray type="Float64" Name="ux" NumberOfComponents="1" format="ascii">
               0.0000000e+00    0.0000000e+00    0.0000000e+00   -1.4312698e-04    0.0000000e+00    0.0000000e+00   -2.7969448e-04   -4.6419667e-05    0.0000000e+00   -1.4000050e-04    0.0000000e+00   -4.1090575e-04   -1.4312698e-04    0.0000000e+00   -2.8023007e-04   -9.2612150e-05    4.6419667e-05    0.0000000e+00   -4.4293531e-05   -5.3444324e-04    0.0000000e+00   -2.7969448e-04    1.4312698e-04    0.0000000e+00   -1.3603921e-04   -4.1130470e-04   -4.6419667e-05    9.2612150e-05    4.4293531e-05   -9.2919698e-05    0.0000000e+00   -6.5049861e-04   -4.1090575e-04    2.7969448e-04   -1.7729033e-04    1.3603921e-04   -9.2612150e-05    1.4000050e-04    4.6419667e-05   -5.3480529e-04   -1.3631297e-04    9.2919698e-05   -5.3444324e-04    1.4312698e-04   -7.5906329e-04    4.1090575e-04    2.8023007e-04    9.2612150e-05   -2.1596337e-04   -1.3603921e-04   -6.5086118e-04    1.7729033e-04   -1.7751030e-04    1.3631297e-04   -8.6014211e-04    2.7969448e-04   -6.5049861e-04    5.3444324e-04   -1.7729033e-04   -7.5942773e-04    4.1130470e-04    1.3603921e-04   -2.5215346e-04    2.1596337e-04   -2.1619434e-04    1.7751030e-04    6.5049861e-04   -7.5906329e-04   -9.5373328e-04    4.1090575e-04    2.5215346e-04    1.7729033e-04   -2.1596337e-04    5.3480529e-04   -8.6050603e-04   -2.8584609e-04    2.1619434e-04   -2.5238268e-04    7.5906329e-04   -8.6014211e-04   -1.0398373e-03    5.3444324e-04   -3.1704322e-04   -9.5409731e-04   -2.5215346e-04    6.5086118e-04    2.1596337e-04    2.8584609e-04    2.5238268e-04   -2.8607566e-04    8.6014211e-04   -1.1184538e-03    6.5049861e-04   -9.5373328e-04    2.5215346e-04    3.1704322e-04   -1.0402013e-03   -3.4574451e-04    7.5942773e-04   -2.8584609e-04    2.8607566e-04   -3.1727270e-04   -1.0398373e-03   -1.1895832e-03    9.5373328e-04    7.5906329e-04    2.8584609e-04   -3.1704322e-04   -1.1188178e-03    3.4574451e-04   -3.7195007e-04    8.6050603e-04   -3.4597403e-04    3.1727270e-04    1.0398373e-03   -1.1184538e-03    8.6014211e-04   -1.2532253e-03    3.1704322e-04   -3.9565985e-04    3.7195007e-04    9.5409731e-04   -3.4574451e-04   -1.1899472e-03   -3.7217958e-04    3.4597403e-04    1.1184538e-03   -1.3093799e-03   -1.1895832e-03    9.5373328e-04    1.0402013e-03    3.4574451e-04    3.9565985e-04   -4.1687387e-04   -1.2535893e-03   -3.7195007e-04   -3.9588936e-04    3.7217958e-04   -1.2532253e-03    1.1895832e-03    1.0398373e-03   -1.3580474e-03   -1.3097440e-03    3.7195007e-04    1.1188178e-03   -3.9565985e-04   -4.3559211e-04    4.1687387e-04    3.9588936e-04   -4.1710338e-04   -1.3093799e-03   -1.3992275e-03    1.1184538e-03    1.2532253e-03   -4.5181462e-04    3.9565985e-04   -1.3584114e-03   -4.1687387e-04    1.1899472e-03    4.3559211e-04    4.1710338e-04   -4.3582162e-04   -1.4329205e-03    1.3093799e-03   -1.3580474e-03    1.1895832e-03   -4.6554132e-04    1.2535893e-03    4.5181462e-04   -1.3995916e-03   -4.3559211e-04    4.1687387e-04   -4.5204413e-04    4.3582162e-04   -1.3992275e-03    1.3580474e-03   -1.4591261e-03    1.2532253e-03    1.3097440e-03    4.3559211e-04   -4.7677240e-04   -1.4332844e-03   -4.5181462e-04    4.6554132e-04    4.5204413e-04   -4.6577083e-04   -1.4778373e-03   -1.4329205e-03    1.3093799e-03    1.3992275e-03   -4.8550690e-04   -4.6554132e-04   -1.4594900e-03    1.3584114e-03    4.7677240e-04    4.5181462e-04    4.6577083e-04   -4.7700168e-04   -1.4891179e-03   -1.4591261e-03    1.4329205e-03    1.3580474e-03   -4.7677240e-04    4.6554132e-04   -4.9174554e-04   -1.4782145e-03    4.8550690e-04    1.3995916e-03    4.7700168e-04   -4.8573731e-04   -1.4929732e-03   -1.4778373e-03    1.3992275e-03    1.4591261e-03   -4.8550690e-04   -4.9551018e-04   -1.4893857e-03    4.9174554e-04    1.4332844e-03    4.7677240e-04   -4.9197866e-04    4.8573731e-04   -4.9680355e-04    1.4778373e-03   -1.4891179e-03   -1.4931187e-03    1.4329205e-03    4.9551018e-04    4.8550690e-04    1.4594900e-03   -4.9174554e-04    4.9197866e-04   -4.9569400e-04   -1.4929732e-03    1.4891179e-03    4.9680355e-04    1.4591261e-03   -4.9693679e-04    1.4782145e-03   -4.9551018e-04    4.9174554e-04    4.9569400e-04    1.4929732e-03   -4.9680355e-04    1.4778373e-03    4.9551018e-04    1.4893857e-03    4.9693679e-04    1.4931187e-03    4.9680355e-04    1.4891179e-03    1.4929732e-03
            </DataArray>
            <DataArray type="Float64" Name="fx" NumberOfComponents="1" format="ascii">
               2.3108733e+02    4.4063617e+02    1.6263940e+02    2.8421709e-14    2.3108733e+02   -1.6263940e+02    3.4550141e-13    7.7049478e-14    2.9979037e+02    5.3290705e-14   -2.3108733e+02    1.0569323e-13    0.0000000e+00    1.6263940e+02   -1.9273472e-13    2.7533531e-14    3.8191672e-14   -2.9979037e+02   -3.9968029e-14    2.5135449e-13   -1.6263940e+02    7.1054274e-15   -5.1514348e-14   -4.4063617e+02   -2.0783375e-13    7.9491969e-13   -2.8199665e-14   -3.4416914e-14    4.1744386e-14   -4.9293902e-14   -2.3108733e+02    4.6274096e-13    9.9920072e-14    3.1086245e-14    2.6090241e-13   -9.1260333e-14   -6.4170891e-14   -2.6645353e-14   -1.2012613e-13    3.5127456e-13   -1.2922996e-13    2.4202862e-14   -1.1368684e-13   -1.9539925e-14    4.0678572e-13   -7.9936058e-14   -1.7763568e-15    2.3758773e-14    6.9455552e-13    5.3956839e-14    6.7412742e-13    1.0702550e-13   -5.3823612e-13   -1.6830981e-13    5.4267701e-13   -9.7699626e-14    4.7517545e-13    8.6153307e-14   -1.6098234e-13   -4.1122661e-13   -1.0658141e-14   -4.7073456e-14   -2.3292479e-13    8.7485574e-14    1.0068613e-12    1.4654944e-14    6.9722006e-14    4.6451731e-13    3.1175063e-13   -1.3322676e-13    2.9154457e-13    2.8865799e-14    3.0331293e-13   -5.0093263e-13   -9.3258734e-13    5.7731597e-13    8.7263530e-14   -1.1232126e-12    2.0872193e-14    7.8381746e-13    5.7465144e-13    1.5276669e-13   -3.5915715e-13    4.1966430e-13   -2.1771474e-13   -5.5466742e-13    6.1395333e-13    1.2867485e-12    5.7864824e-13    2.1295188e-12    3.6592951e-13    2.1227464e-13   -3.8724579e-13    2.5091040e-13    4.6052051e-13   -8.0380147e-14    1.0023093e-12    6.7157391e-13   -1.9628743e-13   -1.7896795e-13    1.4823698e-12    2.2837288e-13    1.9895197e-13    9.4013686e-13   -1.8607338e-13    2.8066438e-13   -1.2054802e-12   -6.8056671e-14   -5.4489746e-13   -1.1164403e-12   -2.4014124e-13   -4.7872817e-13    2.1335156e-12   -9.1504582e-13    7.1276318e-13   -7.1942452e-14   -1.5099033e-13   -9.5479180e-15    1.0638157e-12    4.5130566e-13   -4.5219384e-13   -5.9285910e-13   -1.5809576e-13   -4.8361315e-13   -1.3893331e-12   -1.8365309e-12    1.0658141e-14    1.1697310e-12    8.4598994e-14    3.4638958e-14   -2.5668356e-13    1.3586909e-12    1.1766144e-12   -2.2393198e-13    4.3343107e-13    5.6166183e-13    1.2816415e-12    8.3621998e-13   -1.9162449e-13    2.5313085e-13   -7.9136697e-13    2.4535929e-13   -3.5895731e-12    4.8716586e-13    2.1636026e-12   -8.9461771e-13    1.4162005e-12    8.3144602e-13   -2.5510705e-12   -5.3479443e-13   -4.6140869e-13    3.3433256e-12    1.5987212e-13    5.5999649e-13   -3.9146464e-13   -1.5333290e-12    7.0299322e-13    1.6634472e-12    1.1461943e-12   -3.6526338e-13    8.3821838e-13    1.7580382e-12    1.2119195e-12    1.7994495e-12   -2.5401903e-13   -1.2545520e-13    9.5168318e-13    1.8576252e-12    7.7710061e-13   -1.0962342e-12    2.0625723e-12    9.9253938e-14    9.6589403e-15    1.9738655e-12    3.5234038e-12   -1.6620039e-12   -1.4928059e-12   -3.5527137e-15   -1.9453328e-12    2.7932101e-12    1.3680168e-12    4.6223025e-12    1.7004176e-12    5.5520588e-12    2.6121327e-12    9.6245234e-13    2.2637447e-13    1.0844659e-12   -1.2247980e-12   -4.0096815e-12   -2.7519098e-12   -3.0652147e-12   -9.8265840e-13    3.6926018e-13    2.0927704e-13   -1.6604496e-12   -1.9556023e-12   -3.0204728e-12   -3.1083469e-12    4.7239990e-13    9.2026387e-13    2.9198866e-13   -2.0899393e-12   -1.3405388e-12    1.3243850e-12    5.4944937e-13   -5.1721960e-12   -2.6771918e-12    4.6702087e-12   -6.1028960e-12   -5.6676365e-13    1.1198265e-12   -2.7711167e-13   -1.2055912e-12    2.3061553e-12    5.2921556e-12    4.9951154e-12   -1.0423051e-12    1.3558044e-12   -8.6708418e-14    2.8210767e-13   -1.6173729e-12   -7.0804473e-13    5.6288307e-14    1.1766976e-12    2.5135232e-12    1.7408297e-13    4.5022805e-12   -1.5018820e-12    2.5293101e-12    3.0582203e-12   -2.1747187e-13    1.5623614e-12    1.4308450e-12   -1.0506318e-12   -2.0708435e-12    2.4924507e-13   -7.8120843e-13   -5.3140825e-13    2.9371783e-12   -1.1893334e-12    3.5044537e-12    4.8456508e-13   -2.2422897e-12   -1.8711144e-12    6.2326116e-12    2.7324254e-12   -2.8079206e-12   -1.1549418e-12   -7.0729533e-13    1.0101919e-12    2.3485554e-13
            </DataArray>
            <DataArray type="Float64" Name="uy" NumberOfComponents="1" format="ascii">
               0.0000000e+00    0.0000000e+00    0.0000000e+00   -2.6934844e-05    0.0000000e+00    0.0000000e+00   -2.5103493e-05   -9.6461627e-06    0.0000000e+00    3.8921885e-17    0.0000000e+00   -2.3557091e-05    2.6934844e-05    0.0000000e+00    1.6569054e-16   -8.9633868e-06    9.6461627e-06    0.0000000e+00    4.2589826e-17   -2.2158210e-05    0.0000000e+00    2.5103493e-05    2.6934844e-05    0.0000000e+00   -8.2985971e-06    3.6549485e-16    9.6461627e-06    8.9633868e-06    3.9966753e-17    1.6700667e-16    0.0000000e+00   -2.0783287e-05    2.3557091e-05    2.5103493e-05   -7.8411167e-06    8.2985971e-06    8.9633868e-06    3.0891434e-17   -9.6461627e-06    6.3376403e-16    3.6355236e-16    1.6158194e-16    2.2158210e-05   -2.6934844e-05   -1.9395762e-05    2.3557091e-05    1.4951352e-16   -8.9633868e-06   -7.3468750e-06    8.2985971e-06    9.6507249e-16    7.8411167e-06    6.2866161e-16    3.5540637e-16   -1.8010616e-05   -2.5103493e-05    2.0783287e-05    2.2158210e-05    7.8411167e-06    1.3538085e-15    3.4101155e-16   -8.2985971e-06   -6.8579261e-06    7.3468750e-06    9.5671726e-16    6.1775574e-16    2.0783287e-05    1.9395762e-05   -1.6625148e-05   -2.3557091e-05    6.8579261e-06   -7.8411167e-06    7.3468750e-06    6.0114410e-16    1.7950629e-15   -6.3678781e-06    9.4319723e-16    1.3423327e-15    1.9395762e-05    1.8010616e-05   -1.5239725e-05   -2.2158210e-05   -5.8780779e-06    2.2828897e-15    6.8579261e-06    9.2419860e-16   -7.3468750e-06    6.3678781e-06    1.3260759e-15    1.7802502e-15    1.8010616e-05   -1.3854295e-05   -2.0783287e-05    1.6625148e-05   -6.8579261e-06    5.8780779e-06    2.8131398e-15   -5.3882327e-06    1.3052946e-15    6.3678781e-06    1.7613133e-15    2.2653962e-15    1.5239725e-05   -1.2468865e-05    1.6625148e-05   -1.9395762e-05   -6.3678781e-06    5.8780779e-06    3.3796301e-15    5.3882327e-06   -4.8983939e-06    1.7379759e-15    2.7923839e-15    2.2434792e-15    1.5239725e-05    1.3854295e-05   -1.8010616e-05   -1.1083436e-05   -5.8780779e-06   -4.4085546e-06    4.8983939e-06    2.2182247e-15    5.3882327e-06    3.9756546e-15    3.3558757e-15    2.7681503e-15    1.3854295e-05   -9.6980066e-06    1.2468865e-05   -1.6625148e-05    2.7403691e-15   -5.3882327e-06    4.4085546e-06   -3.9187153e-06    4.5989895e-15    4.8983939e-06    3.9510737e-15    3.3297577e-15    1.1083436e-05    1.2468865e-05   -1.5239725e-05   -8.3125788e-06    5.2445781e-15   -4.8983939e-06    3.3003752e-15    4.4085546e-06   -3.4288757e-06    3.9187153e-06    3.9236294e-15    4.5727434e-15    9.6980066e-06   -6.9271264e-06   -1.3854295e-05    1.1083436e-05   -2.9390367e-06   -4.4085546e-06    5.9056357e-15    3.9187153e-06    3.8946334e-15    3.4288757e-06    4.5441446e-15    5.2164096e-15   -5.5417618e-06    9.6980066e-06    8.3125788e-06   -1.2468865e-05   -2.4491953e-06    4.5134909e-15    2.9390367e-06    6.5758412e-15    3.4288757e-06   -3.9187153e-06    5.8765922e-15    5.1868177e-15    6.9271264e-06    8.3125788e-06   -4.1568937e-06   -1.1083436e-05    5.1561699e-15   -3.4288757e-06   -1.9593149e-06    7.2511102e-15    2.9390367e-06    2.4491953e-06    5.8460321e-15    6.5472051e-15   -2.7679835e-06    5.5417618e-06   -9.6980066e-06    6.9271264e-06   -1.4701386e-06    2.4491953e-06    7.9274830e-15    5.8166824e-15    1.9593149e-06   -2.9390367e-06    6.5180816e-15    7.2245016e-15   -1.3432212e-06    4.1568937e-06    5.5417618e-06   -8.3125788e-06    1.9593149e-06   -2.4491953e-06   -9.7729958e-07    8.6039337e-15    1.4701387e-06    6.4883990e-15    7.1979259e-15    7.9046317e-15   -4.8947129e-07    2.7679835e-06   -6.9271264e-06    4.1568937e-06    1.4701387e-06   -4.7212967e-07    9.2752285e-15    9.7729958e-07    7.1704947e-15   -1.9593149e-06    8.5843918e-15    7.8814950e-15   -2.0127872e-07    2.7679835e-06    1.3432212e-06    9.9520069e-15   -5.5417618e-06    4.7212970e-07   -1.4701386e-06    7.8581517e-15    9.7729958e-07    8.5669819e-15    9.2643060e-15    4.8947129e-07    1.3432212e-06    2.0127874e-07   -4.1568937e-06    9.9459295e-15    8.5489113e-15    4.7212970e-07   -9.7729958e-07    9.2532429e-15    4.8947129e-07    2.0127874e-07   -2.7679835e-06   -4.7212967e-07    9.2415123e-15    9.9370068e-15    9.9312140e-15   -2.0127872e-07   -1.3432212e-06   -4.8947129e-07
            </DataArray>
            <DataArray type="Float64" Name="fy" NumberOfComponents="1" format="ascii">
               4.0954105e+01    1.7740365e-11    3.4599888e+01    1.3183898e-14   -4.0954105e+01   -3.4599888e+01    6.2989544e-14    4.0689674e-14    2.7173305e-11    3.8195141e-14   -4.0954105e+01    9.2712296e-14   -1.8512969e-14   -3.4599888e+01   -4.9064919e-14    6.4476202e-14    1.1546319e-14    3.3867964e-11   -3.9308834e-14    9.6443686e-14    3.4599888e+01    6.0697974e-15   -4.2743586e-15    2.6362357e-11    1.1013412e-13    1.6171092e-14   -2.1926905e-15   -3.7241044e-14    4.3659520e-14    1.0080131e-13    4.0954105e+01    1.7560432e-13   -6.0697974e-15    2.1805474e-14   -7.5800477e-14    3.9961090e-14   -8.3252849e-14   -6.2935768e-15    3.3341385e-14   -7.0582429e-14    6.6883998e-14   -1.8235413e-14    1.0696305e-14   -1.8984814e-14   -2.4067554e-14   -4.8018881e-14    6.3470063e-14   -1.1001616e-13    2.6109670e-13   -2.3009372e-13    5.8636429e-13    4.8006737e-13    8.4217355e-14    8.5847995e-14   -1.2502499e-13    2.4969610e-14    3.6231781e-13   -7.9623808e-14   -9.5340402e-15   -1.3825399e-13   -2.0947133e-13   -1.2818913e-13    1.0937085e-13   -3.9894477e-13   -2.8017866e-13   -1.0183521e-13    1.0452056e-13    1.3280176e-13    5.4518022e-13   -5.3446830e-15    6.1936567e-14   -9.5125297e-14   -4.0649428e-13   -3.7529355e-13    2.7660860e-13    1.0910717e-13    4.3456905e-13    4.8791526e-13   -7.8251641e-14    4.5036717e-13    8.0272247e-13   -2.2859145e-13    5.7242405e-13   -1.0888651e-12    4.5773801e-13   -4.0444731e-13   -1.8560153e-13    7.0672634e-14    1.0161247e-12    1.7105900e-12   -8.0145959e-13    3.4337637e-13    1.9220216e-13    7.5528125e-14    7.5160017e-13    1.2210788e-12    9.5723429e-13    4.6684878e-13    3.7681663e-14    6.5773775e-14    5.8980598e-15    9.9900643e-13    7.5518758e-13    7.3113390e-13   -1.0047241e-12    1.4392827e-13    1.5007440e-13    1.0605405e-13    2.1440627e-12    3.3657105e-13    8.1983031e-13   -1.5359866e-12    3.2808825e-13   -3.3299613e-12   -9.4184556e-13   -1.1501182e-12    9.4305813e-13    3.5415421e-13   -1.3864049e-12   -1.2605889e-13    9.5301197e-13    9.5399730e-13   -5.1438021e-13    1.1434898e-12    1.6711979e-12    3.8537923e-13   -8.1046628e-13    2.9343958e-12   -6.2369901e-13    2.5648407e-13   -4.5163179e-13    4.1792958e-14   -1.2068298e-12    2.4363497e-12    3.7680449e-13   -4.4968196e-13   -1.0617895e-13    8.1853274e-13   -2.3074251e-12    8.2086941e-13   -9.0312827e-13    6.7297036e-13    1.2786716e-12   -2.8474445e-13   -2.5924297e-12   -9.6729569e-13    3.7917586e-14   -2.7770598e-12    9.2979791e-13   -2.1665204e-12   -7.8044168e-13   -9.7817587e-14   -5.4143842e-13   -1.0605822e-12    1.0855553e-12    1.5874108e-12    1.1934065e-12   -1.6214807e-12    4.2314832e-12    1.9624025e-12   -5.1477642e-12    2.5418105e-12    2.5364537e-12   -1.1005138e-12   -3.0053095e-12    1.5814260e-13    3.8052478e-12    2.1323030e-12    2.0993294e-12   -9.0184110e-13   -2.6903826e-13    6.3174466e-13    1.0868959e-11    1.9670029e-13    1.0855518e-12   -1.5459144e-12    3.5706195e-12   -6.0862773e-13   -7.7233706e-13    1.0716254e-12    4.4806138e-12    3.4570957e-13    3.1926475e-12    1.9086781e-12   -5.8680213e-12    5.5365105e-12   -4.0288779e-13   -4.6305321e-13   -9.7778556e-13    1.6188318e-12    6.1282576e-14   -6.2892053e-13    2.5334890e-12    8.8610716e-13    3.7060077e-12   -1.9503652e-12   -2.7010581e-12    2.6261875e-12    2.5638311e-12    4.6352852e-13    1.1493931e-12    1.8937595e-12    5.6284838e-14    1.3814297e-13   -5.8227485e-12    3.6835899e-12    1.3312780e-12   -5.2343546e-14   -4.0418797e-12    3.7060910e-12   -9.8825543e-14   -2.2829690e-12    3.5754212e-13   -1.1867243e-14    4.5026049e-12   -1.3801208e-12   -4.3958049e-12   -5.5642947e-13    9.9479452e-13    5.7324371e-13    1.8441975e-12    2.5635830e-13    1.1920014e-12    1.0687111e-13   -7.4308268e-13    3.7273786e-13    3.4353163e-12    2.8958147e-12   -5.0903678e-12    1.3388526e-12    3.5937000e-12    1.0028678e-11   -2.9846577e-12   -3.1551194e-13   -2.2914587e-12    1.6900023e-13    3.5208503e-12    7.1652840e-13    2.7391492e-12    3.5710809e-12   -3.3191518e-12    5.6308820e-12    8.0179613e-13    2.9681466e-13   -1.2473182e-12    2.2463099e-12   -1.2840527e-12    1.2712497e-12    1.6229344e-12   -5.0553312e-14    1.7314414e-12    4.4733466e-13
            </DataArray>
            <DataArray type="Float64" Name="uz" NumberOfComponents="1" format="ascii">