<?xml version="1.0"?>
<VTKFile type="UnstructuredGrid" version="0.1" byte_order="LittleEndian">
   <UnstructuredGrid>
      <Piece NumberOfPoints="252" NumberOfCells="120">
         <Points>
            <DataArray type="Float64" NumberOfComponents="3" format="ascii">
               0.0000000e+00     0.0000000e+00     0.0000000e+00
               0.0000000e+00     5.0000000e-02     0.0000000e+00
               0.0000000e+00     0.0000000e+00     3.3333330e-02
               5.0000000e-02     0.0000000e+00     0.0000000e+00
               0.0000000e+00     1.0000000e-01     0.0000000e+00
               0.0000000e+00     0.0000000e+00     6.6666670e-02
               1.0000000e-01     0.0000000e+00     0.0000000e+00
               5.0000000e-02     0.0000000e+00     3.3333330e-02
               0.0000000e+00     5.0000000e-02     3.3333330e-02
               5.0000000e-02     5.0000000e-02     0.0000000e+00
               0.0000000e+00     0.0000000e+00     1.0000000e-01
               1.5000000e-01     0.0000000e+00     0.0000000e+00
               5.0000000e-02     1.0000000e-01     0.0000000e+00
               0.0000000e+00     1.0000000e-01     3.3333330e-02
               1.0000000e-01     5.0000000e-02     0.0000000e+00
               1.0000000e-01     0.0000000e+00     3.3333330e-02
               5.0000000e-02     0.0000000e+00     6.6666670e-02
               0.0000000e+00     5.0000000e-02     6.6666670e-02
               5.0000000e-02     5.0000000e-02     3.3333330e-02
               2.0000000e-01     0.0000000e+00     0.0000000e+00
               0.0000000e+00     1.0000000e-01     6.6666670e-02
               1.0000000e-01     1.0000000e-01     0.0000000e+00
               5.0000000e-02     0.0000000e+00     1.0000000e-01
               0.0000000e+00     5.0000000e-02     1.0000000e-01
               1.5000000e-01     0.0000000e+00     3.3333330e-02
               1.5000000e-01     5.0000000e-02     0.0000000e+00
               5.0000000e-02     1.0000000e-01     3.3333330e-02
               1.0000000e-01     0.0000000e+00     6.6666670e-02
               5.0000000e-02     5.0000000e-02     6.6666670e-02
               1.0000000e-01     5.0000000e-02     3.3333330e-02
               0.0000000e+00     1.0000000e-01     1.0000000e-01
               2.5000000e-01     0.0000000e+00     0.0000000e+00
               1.5000000e-01     1.0000000e-01     0.0000000e+00
               1.0000000e-01     0.0000000e+00     1.0000000e-01
               2.0000000e-01     0.0000000e+00     3.3333330e-02
               1.5000000e-01     0.0000000e+00     6.6666670e-02
               1.0000000e-01     1.0000000e-01     3.3333330e-02
               5.0000000e-02     5.0000000e-02     1.0000000e-01
               5.0000000e-02     1.0000000e-01     6.6666670e-02
               2.0000000e-01     5.0000000e-02     0.0000000e+00
               1.5000000e-01     5.0000000e-02     3.3333330e-02
               1.0000000e-01     5.0000000e-02     6.6666670e-02
               2.0000000e-01     1.0000000e-01     0.0000000e+00
               5.0000000e-02     1.0000000e-01     1.0000000e-01
               3.0000000e-01     0.0000000e+00     0.0000000e+00
               1.5000000e-01     0.0000000e+00     1.0000000e-01
               1.0000000e-01     5.0000000e-02     1.0000000e-01
               1.0000000e-01     1.0000000e-01     6.6666670e-02
               2.5000000e-01     0.0000000e+00     3.3333330e-02
               1.5000000e-01     1.0000000e-01     3.3333330e-02
               2.5000000e-01     5.0000000e-02     0.0000000e+00
               2.0000000e-01     0.0000000e+00     6.6666670e-02
               2.0000000e-01     5.0000000e-02     3.3333330e-02
               1.5000000e-01     5.0000000e-02     6.6666670e-02
               3.5000000e-01     0.0000000e+00     0.0000000e+00
               1.0000000e-01     1.0000000e-01     1.0000000e-01
               2.5000000e-01     1.0000000e-01     0.0000000e+00
               2.0000000e-01     0.0000000e+00     1.0000000e-01
               2.0000000e-01     1.0000000e-01     3.3333330e-02
               3.0000000e-01     5.0000000e-02     0.0000000e+00
               1.5000000e-01     5.0000000e-02     1.0000000e-01
               1.5000000e-01     1.0000000e-01     6.6666670e-02
               3.0000000e-01     0.0000000e+00     3.3333330e-02
               2.5000000e-01     0.0000000e+00     6.6666670e-02
               2.5000000e-01     5.0000000e-02     3.3333330e-02
               2.0000000e-01     5.0000000e-02     6.6666670e-02
               2.5000000e-01     0.0000000e+00     1.0000000e-01
               3.0000000e-01     1.0000000e-01     0.0000000e+00
               4.0000000e-01     0.0000000e+00     0.0000000e+00
               1.5000000e-01     1.0000000e-01     1.0000000e-01
               3.0000000e-01     0.0000000e+00     6.6666670e-02
               2.0000000e-01     1.0000000e-01     6.6666670e-02
               2.5000000e-01     1.0000000e-01     3.3333330e-02
               2.0000000e-01     5.0000000e-02     1.0000000e-01
               3.5000000e-01     5.0000000e-02     0.0000000e+00
               3.5000000e-01     0.0000000e+00     3.3333330e-02
               2.5000000e-01     5.0000000e-02     6.6666670e-02
               3.0000000e-01     5.0000000e-02     3.3333330e-02
               3.0000000e-01     0.0000000e+00     1.0000000e-01
               3.5000000e-01     1.0000000e-01     0.0000000e+00
               4.5000000e-01     0.0000000e+00     0.0000000e+00
               2.0000000e-01     1.0000000e-01     1.0000000e-01
               4.0000000e-01     0.0000000e+00     3.3333330e-02
               4.0000000e-01     5.0000000e-02     0.0000000e+00
               3.0000000e-01     1.0000000e-01     3.3333330e-02
               2.5000000e-01     5.0000000e-02     1.0000000e-01
               2.5000000e-01     1.0000000e-01     6.6666670e-02
               3.5000000e-01     0.0000000e+00     6.6666670e-02
               3.0000000e-01     5.0000000e-02     6.6666670e-02
               3.5000000e-01     5.0000000e-02     3.3333330e-02
               3.5000000e-01     0.0000000e+00     1.0000000e-01
               5.0000000e-01     0.0000000e+00     0.0000000e+00
               2.5000000e-01     1.0000000e-01     1.0000000e-01
               4.0000000e-01     1.0000000e-01     0.0000000e+00
               3.0000000e-01     1.0000000e-01     6.6666670e-02
               4.0000000e-01     0.0000000e+00     6.6666670e-02
               4.5000000e-01     5.0000000e-02     0.0000000e+00
               4.5000000e-01     0.0000000e+00     3.3333330e-02
               3.0000000e-01     5.0000000e-02     1.0000000e-01
               3.5000000e-01     1.0000000e-01     3.3333330e-02
               3.5000000e-01     5.0000000e-02     6.6666670e-02
               4.0000000e-01     5.0000000e-02     3.3333330e-02
               4.5000000e-01     1.0000000e-01     0.0000000e+00
               5.5000000e-01     0.0000000e+00     0.0000000e+00
               4.0000000e-01     0.0000000e+00     1.0000000e-01
               3.0000000e-01     1.0000000e-01     1.0000000e-01
               3.5000000e-01     1.0000000e-01     6.6666670e-02
               4.0000000e-01     1.0000000e-01     3.3333330e-02
               5.0000000e-01     5.0000000e-02     0.0000000e+00
               4.5000000e-01     0.0000000e+00     6.6666670e-02
               5.0000000e-01     0.0000000e+00     3.3333330e-02
               3.5000000e-01     5.0000000e-02     1.0000000e-01
               4.5000000e-01     5.0000000e-02     3.3333330e-02
               4.0000000e-01     5.0000000e-02     6.6666670e-02
               4.5000000e-01     0.0000000e+00     1.0000000e-01
               5.0000000e-01     1.0000000e-01     0.0000000e+00
               3.5000000e-01     1.0000000e-01     1.0000000e-01
               6.0000000e-01     0.0000000e+00     0.0000000e+00
               4.0000000e-01     1.0000000e-01     6.6666670e-02
               5.5000000e-01     0.0000000e+00     3.3333330e-02
               5.0000000e-01     0.0000000e+00     6.6666670e-02
               4.0000000e-01     5.0000000e-02     1.0000000e-01
               4.5000000e-01     1.0000000e-01     3.3333330e-02
               5.5000000e-01     5.0000000e-02     0.0000000e+00
               5.0000000e-01     5.0000000e-02     3.3333330e-02
               4.5000000e-01     5.0000000e-02     6.6666670e-02
               5.0000000e-01     0.0000000e+00     1.0000000e-01
               6.5000000e-01     0.0000000e+00     0.0000000e+00
               5.5000000e-01     1.0000000e-01     0.0000000e+00
               4.0000000e-01     1.0000000e-01     1.0000000e-01
               4.5000000e-01     5.0000000e-02     1.0000000e-01
               4.5000000e-01     1.0000000e-01     6.6666670e-02
               5.5000000e-01     0.0000000e+00     6.6666670e-02
               6.0000000e-01     0.0000000e+00     3.3333330e-02
               6.0000000e-01     5.0000000e-02     0.0000000e+00
               5.0000000e-01     1.0000000e-01     3.3333330e-02
               5.5000000e-01     5.0000000e-02     3.3333330e-02
               5.0000000e-01     5.0000000e-02     6.6666670e-02
               6.0000000e-01     1.0000000e-01     0.0000000e+00
               5.5000000e-01     0.0000000e+00     1.0000000e-01
               4.5000000e-01     1.0000000e-01     1.0000000e-01
               7.0000000e-01     0.0000000e+00     0.0000000e+00
               6.5000000e-01     5.0000000e-02     0.0000000e+00
               5.0000000e-01     1.0000000e-01     6.6666670e-02
               5.0000000e-01     5.0000000e-02     1.0000000e-01
               5.5000000e-01     1.0000000e-01     3.3333330e-02
               6.5000000e-01     0.0000000e+00     3.3333330e-02
               6.0000000e-01     0.0000000e+00     6.6666670e-02
               5.5000000e-01     5.0000000e-02     6.6666670e-02
[...]
         <PointData>
            <DataArray type="Int32" Name="node-id" NumberOfComponents="1" format="ascii">
               1  2  3  4  5  6  7  8  9  10  11  12  13  14  15  16  17  18  19  20  21  22  23  24  25  26  27  28  29  30  31  32  33  34  35  36  37  38  39  40  41  42  43  44  45  46  47  48  49  50  51  52  53  54  55  56  57  58  59  60  61  62  63  64  65  66  67  68  69  70  71  72  73  74  75  76  77  78  79  80  81  82  83  84  85  86  87  88  89  90  91  92  93  94  95  96  97  98  99  100  101  102  103  104  105  106  107  108  109  110  111  112  113  114  115  116  117  118  119  120  121  122  123  124  125  126  127  128  129  130  131  132  133  134  135  136  137  138  139  140  141  142  143  144  145  146  147  148  149  150  151  152  153  154  155  156  157  158  159  160  161  162  163  164  165  166  167  168  169  170  171  172  173  174  175  176  177  178  179  180  181  182  183  184  185  186  187  188  189  190  191  192  193  194  195  196  197  198  199  200  201  202  203  204  205  206  207  208  209  210  211  212  213  214  215  216  217  218  219  220  221  222  223  224  225  226  227  228  229  230  231  232  233  234  235  236  237  238  239  240  241  242  243  244  245  246  247  248  249  250  251  252  
            </DataArray>
            <DataArray type="Float64" Name="ux" NumberOfComponents="1" format="ascii">
               0.0000000e+00    0.0000000e+00    0.0000000e+00   -3.2737336e-04    0.0000000e+00    0.0000000e+00   -7.2704459e-04   -1.0864506e-04    0.0000000e+00   -3.0453393e-04    0.0000000e+00   -1.0784999e-03   -3.2737336e-04    0.0000000e+00   -7.3215790e-04   -2.4335248e-04    1.0864506e-04    0.0000000e+00   -9.9622834e-05   -1.3472044e-03    0.0000000e+00   -7.2704459e-04    3.2737336e-04    0.0000000e+00   -3.5922491e-04   -1.0908418e-03   -1.0864506e-04    2.4335248e-04    9.9622834e-05   -2.4466577e-04    0.0000000e+00   -1.5526318e-03   -1.0784999e-03    7.2704459e-04   -4.4716799e-04    3.5922491e-04   -2.4335248e-04    3.0453393e-04    1.0864506e-04   -1.3543002e-03   -3.6352681e-04    2.4466577e-04   -1.3472044e-03    3.2737336e-04   -1.7239464e-03    1.0784999e-03    7.3215790e-04    2.4335248e-04   -5.1500840e-04   -3.5922491e-04   -1.5563932e-03    4.4716799e-04   -4.5058207e-04    3.6352681e-04   -1.8694663e-03    7.2704459e-04   -1.5526318e-03    1.3472044e-03   -4.4716799e-04   -1.7261809e-03    1.0908418e-03    3.5922491e-04   -5.7241874e-04    5.1500840e-04   -5.1716744e-04    4.5058207e-04    1.5526318e-03   -1.7239464e-03   -2.0027626e-03    1.0784999e-03    5.7241874e-04    4.4716799e-04   -5.1500840e-04    1.3543002e-03   -1.8703933e-03   -6.2193244e-04    5.1716744e-04   -5.7364639e-04    1.7239464e-03   -1.8694663e-03   -2.1251417e-03    1.3472044e-03   -6.6634140e-04   -2.0032469e-03   -5.7241874e-04    1.5563932e-03    5.1500840e-04    6.2193244e-04    5.7364639e-04   -6.2255305e-04    1.8694663e-03   -2.2369009e-03    1.5526318e-03   -2.0027626e-03    5.7241874e-04    6.6634140e-04   -2.1256583e-03   -7.0715073e-04    1.7261809e-03   -6.2193244e-04    6.2255305e-04   -6.6665804e-04   -2.1251417e-03   -2.3380157e-03    2.0027626e-03    1.7239464e-03    6.2193244e-04   -6.6634140e-04   -2.2374182e-03    7.0715073e-04   -7.4439915e-04    1.8703933e-03   -7.0747134e-04    6.6665804e-04    2.1251417e-03   -2.2369009e-03    1.8694663e-03   -2.4284872e-03    6.6634140e-04   -7.7810505e-04    7.4439915e-04    2.0032469e-03   -7.0715073e-04   -2.3385335e-03   -7.4472674e-04    7.0747134e-04    2.2369009e-03   -2.5083150e-03   -2.3380157e-03    2.0027626e-03    2.1256583e-03    7.0715073e-04    7.7810505e-04   -8.0826203e-04   -2.4290048e-03   -7.4439915e-04   -7.7843107e-04    7.4472674e-04   -2.4284872e-03    2.3380157e-03    2.1251417e-03   -2.5774990e-03   -2.5088324e-03    7.4439915e-04    2.2374182e-03   -7.7810505e-04   -8.3487132e-04    8.0826203e-04    7.7843107e-04   -8.0858835e-04   -2.5083150e-03   -2.6360392e-03    2.2369009e-03    2.4284872e-03   -8.5793267e-04    7.7810505e-04   -2.5780164e-03   -8.0826203e-04    2.3385335e-03    8.3487132e-04    8.0858835e-04   -8.3519757e-04   -2.6839359e-03    2.5083150e-03   -2.5774990e-03    2.3380157e-03   -8.7744603e-04    2.4290048e-03    8.5793267e-04   -2.6365567e-03   -8.3487132e-04    8.0826203e-04   -8.5825892e-04    8.3519757e-04   -2.6360392e-03    2.5774990e-03   -2.7211891e-03    2.4284872e-03    2.5088324e-03    8.3487132e-04   -8.9341181e-04   -2.6844533e-03   -8.5793267e-04    8.7744603e-04    8.5825892e-04   -8.7777234e-04   -2.7477883e-03   -2.6839359e-03    2.5083150e-03    2.6360392e-03   -9.0582849e-04   -8.7744603e-04   -2.7217064e-03    2.5780164e-03    8.9341181e-04    8.5793267e-04    8.7777234e-04   -8.9373771e-04   -2.7638243e-03   -2.7211891e-03    2.6839359e-03    2.5774990e-03   -8.9341181e-04    8.7744603e-04   -9.1469713e-04   -2.7483245e-03    9.0582849e-04    2.6365567e-03    8.9373771e-04   -9.0615603e-04   -2.7693049e-03   -2.7477883e-03    2.6360392e-03    2.7211891e-03   -9.0582849e-04   -9.2004880e-04   -2.7642052e-03    9.1469713e-04    2.6844533e-03    8.9341181e-04   -9.1502850e-04    9.0615603e-04   -9.2188740e-04    2.7477883e-03   -2.7638243e-03   -2.7695119e-03    2.6839359e-03    9.2004880e-04    9.0582849e-04    2.7217064e-03   -9.1469713e-04    9.1502850e-04   -9.2031009e-04   -2.7693049e-03    2.7638243e-03    9.2188740e-04    2.7211891e-03   -9.2207681e-04    2.7483245e-03   -9.2004880e-04    9.1469713e-04    9.2031009e-04    2.7693049e-03   -9.2188740e-04    2.7477883e-03    9.2004880e-04    2.7642052e-03    9.2207681e-04    2.7695119e-03    9.2188740e-04    2.7638243e-03    2.7693049e-03
            </DataArray>
            <DataArray type="Float64" Name="fx" NumberOfComponents="1" format="ascii">
               3.2084515e+02    5.8754675e+02    2.7960019e+02   -2.9162907e-03    3.2084515e+02   -2.7960019e+02   -2.9143577e-03    2.8975711e-03    4.9188477e+02   -1.9593241e-03   -3.2084515e+02    7.2398840e-04   -2.9162907e-03    2.7960019e+02   -7.1406309e-03    4.0117241e-03   -2.8975711e-03   -4.9188477e+02    1.9954199e-03    3.6203733e-04   -2.7960019e+02   -2.9143577e-03    2.9162907e-03   -5.8754675e+02    6.2503801e-05   -2.6743193e-04    2.8975711e-03   -4.0117241e-03   -1.9954199e-03    5.7755350e-03   -3.2084515e+02   -1.8070244e-06    7.2398840e-04    2.9143577e-03   -2.5087205e-04   -6.2503801e-05    4.0117241e-03    1.9593241e-03   -2.8975711e-03    3.5914575e-04   -2.9022701e-03   -5.7755350e-03    3.6203733e-04    2.9162907e-03    1.3242723e-06   -7.2398840e-04    7.1406309e-03   -4.0117241e-03   -6.4027954e-06    6.2503801e-05    1.3485653e-05    2.5087205e-04   -5.8662973e-04    2.9022701e-03    1.1556262e-07    2.9143577e-03   -1.8070244e-06   -3.6203733e-04   -2.5087205e-04   -1.1979319e-05    2.6743193e-04   -6.2503801e-05    9.0951210e-07    6.4027959e-06    2.4109009e-05    5.8662973e-04    1.8070245e-06    1.3242721e-06    1.6964208e-13   -7.2398840e-04   -9.0951204e-07    2.5087205e-04   -6.4027954e-06   -3.5914575e-04   -1.2060036e-06    1.4695162e-07   -2.4109009e-05    7.6291867e-06   -1.3242723e-06    1.1556269e-07    7.3718809e-14   -3.6203733e-04   -1.0691448e-13    4.8272497e-13    9.0951227e-07   -1.3485653e-05    6.4027954e-06   -1.4695159e-07   -7.6291867e-06    1.0707927e-07   -1.1556260e-07   -8.8817842e-15    1.8070244e-06    1.8829382e-13   -9.0951210e-07   -3.0930813e-13   -2.9753977e-14   -3.3528735e-14    1.1979319e-05    1.4695152e-07   -1.0707940e-07    1.5298873e-13    1.1768364e-13   -1.4166446e-13    5.4622973e-14   -1.3242723e-06   -1.4695168e-07    5.9063865e-14   -1.2878587e-13    1.3700152e-13    2.4191760e-13    1.2060034e-06   -6.0951244e-14   -6.7945649e-14    1.2212453e-13   -7.1498363e-14   -1.1556268e-07    9.8365760e-14    4.4186876e-14    5.3290705e-15   -1.8574031e-13    4.8849813e-15   -2.3536728e-14   -1.7852386e-13   -2.3125946e-13   -4.4408921e-14   -1.0302870e-13    7.6827433e-14    1.0369483e-13    1.8207658e-14   -1.2345680e-13    6.7501560e-14    2.0117241e-13   -1.4410695e-13    1.9051427e-13   -1.1624035e-13    1.3022916e-13   -8.9928065e-14    4.7739590e-14   -1.6742163e-13   -1.1235457e-13    6.6391337e-14    8.8817842e-15    6.5725203e-14    8.1712415e-14   -1.8873791e-15   -1.1546319e-14   -1.3022916e-13    3.2929215e-13   -4.0745185e-13    2.0916602e-13    8.6819441e-14    2.1138646e-13   -1.6875390e-14   -2.5879299e-13   -4.0023540e-13   -2.1516122e-13   -6.1506356e-14   -1.0214052e-14   -2.4424907e-15   -2.6867397e-13    2.3925306e-13    3.7414516e-14    3.3661962e-13    2.4424907e-15    2.1693758e-13   -1.7119639e-13   -6.2172489e-15   -3.6870507e-13    3.5615955e-13   -8.8706820e-14   -4.8072657e-14    1.7919000e-13    1.7652546e-13    2.0694557e-13    1.6675550e-13   -2.6689762e-13   -9.7033492e-14    1.3233858e-13    3.1663561e-13   -4.6967985e-13   -3.1086245e-14   -4.6518345e-14   -1.4332979e-13   -2.7378100e-13   -1.6853186e-13   -5.7442939e-13   -9.8698827e-14   -1.5765167e-13   -1.4654944e-14    5.5244698e-13   -6.3482553e-13   -5.1403326e-14   -2.1405100e-13   -1.5348833e-13   -7.5717210e-14   -1.6825430e-13   -2.3958613e-13   -2.8074765e-13   -5.8286709e-14    4.8150373e-13   -2.6600944e-13   -3.4194869e-14    1.5759616e-13   -3.9462877e-13   -4.4214632e-13    1.4574453e-13    9.2148511e-14   -2.5274227e-13    3.0558889e-13    9.4350742e-14   -1.2378987e-13    3.3306691e-15    2.8999025e-13    1.4060975e-13    1.8030022e-13   -1.6328605e-13    1.0585977e-13    3.9346304e-13    3.2041036e-13   -6.1955996e-13   -1.0358381e-13    2.8135827e-13    1.0064172e-13   -2.4369395e-14   -1.8397263e-13    2.3847591e-13    7.1907758e-14    3.7145287e-13    4.7406523e-13   -1.8535173e-13    6.0675076e-13    3.0228597e-13    2.6726885e-13    2.8285707e-13   -2.5618396e-13    3.7858605e-14    2.8610447e-13   -5.0331961e-13   -4.0131787e-13    1.3705703e-13   -5.1854354e-14    6.2980003e-14    3.3004155e-13   -3.1197267e-13   -2.5522640e-13    2.6914582e-13   -2.5415781e-13    4.3305810e-13   -2.1915803e-13    6.1894934e-14    3.1731909e-13
            </DataArray>
            <DataArray type="Float64" Name="uy" NumberOfComponents="1" format="ascii">
               0.0000000e+00    0.0000000e+00    0.0000000e+00   -1.4481826e-04    0.0000000e+00    0.0000000e+00   -1.5104369e-04   -3.4794681e-05    0.0000000e+00    1.4150736e-19    0.0000000e+00   -1.0571908e-04    1.4481826e-04    0.0000000e+00    3.0449687e-19   -3.7060738e-05    3.4794681e-05    0.0000000e+00    2.1719936e-20   -6.6056185e-05    0.0000000e+00    1.5104369e-04    1.4481826e-04    0.0000000e+00   -2.7517917e-05   -1.5340331e-20    3.4794681e-05    3.7060738e-05   -9.0366903e-20   -2.5424212e-20    0.0000000e+00   -4.4602573e-05    1.0571908e-04    1.5104369e-04   -1.8091907e-05    2.7517917e-05    3.7060738e-05   -1.8705446e-19   -3.4794681e-05   -3.4375359e-19   -3.9284562e-19   -2.7463526e-19    6.6056185e-05   -1.4481826e-04   -3.2023516e-05    1.0571908e-04   -4.9220198e-19   -3.7060738e-05   -1.3233755e-05    2.7517917e-05   -7.5175637e-19    1.8091907e-05   -8.2907879e-19   -6.9224212e-19   -2.5480336e-05   -1.5104369e-04    4.4602573e-05    6.6056185e-05    1.8091907e-05   -1.3163259e-18   -8.8952976e-19   -2.7517917e-05   -1.0677175e-05    1.3233755e-05   -1.2765530e-18   -1.2899254e-18    4.4602573e-05    3.2023516e-05   -2.3628896e-05   -1.0571908e-04    1.0677175e-05   -1.8091907e-05    1.3233755e-05   -1.7139055e-18   -2.0474240e-18   -9.0973363e-06   -1.8010408e-18   -1.9192120e-18    3.2023516e-05    2.5480336e-05   -2.1662441e-05   -6.6056185e-05   -8.3241803e-06   -3.0318465e-18    1.0677175e-05   -2.3165474e-18   -1.3233755e-05    9.0973363e-06   -2.4405011e-18   -2.6343339e-18    2.5480336e-05   -1.9695852e-05   -4.4602573e-05    2.3628896e-05   -1.0677175e-05    8.3241803e-06   -3.4290688e-18   -7.6656343e-06   -3.0050473e-18    9.0973363e-06   -3.0360144e-18   -3.6381806e-18    2.1662441e-05   -1.7725111e-05    2.3628896e-05   -3.2023516e-05   -9.0973363e-06    8.3241803e-06   -3.4945386e-18    7.6656343e-06   -6.9626076e-06   -3.6303820e-18   -4.7355478e-18   -4.0833556e-18    2.1662441e-05    1.9695852e-05   -2.5480336e-05   -1.5755868e-05   -8.3241803e-06   -6.2671697e-06    6.9626076e-06   -3.7942117e-18    7.6656343e-06   -4.4447996e-18   -4.9837454e-18   -5.1153527e-18    1.9695852e-05   -1.3786358e-05    1.7725111e-05   -2.3628896e-05   -4.7344890e-18   -7.6656343e-06    6.2671697e-06   -5.5706928e-06   -5.9960536e-18    6.9626076e-06   -5.9815142e-18   -6.0623625e-18    1.5755868e-05    1.7725111e-05   -2.1662441e-05   -1.1816885e-05   -6.9074995e-18   -6.9626076e-06   -6.8344888e-18    6.2671697e-06   -4.8743786e-06    5.5706928e-06   -6.8685765e-18   -6.7938933e-18    1.3786358e-05   -9.8473711e-06   -1.9695852e-05    1.5755868e-05   -4.1780354e-06   -6.2671697e-06   -8.0647041e-18    5.5706928e-06   -8.0369803e-18    4.8743786e-06   -7.8780971e-18   -7.3834249e-18   -7.8779831e-06    1.3786358e-05    1.1816885e-05   -1.7725111e-05   -3.4816940e-06   -8.5287565e-18    4.1780354e-06   -9.7551279e-18    4.8743786e-06   -5.5706928e-06   -8.3989951e-18   -8.0811815e-18    9.8473711e-06    1.1816885e-05   -5.9093009e-06   -1.5755868e-05   -1.0755146e-17   -4.8743786e-06   -2.7852964e-06   -1.0450142e-17    4.1780354e-06    3.4816940e-06   -9.5976766e-18   -1.1076332e-17   -3.9348724e-06    7.8779831e-06   -1.3786358e-05    9.8473711e-06   -2.0898999e-06    3.4816940e-06   -1.1941264e-17   -1.1233291e-17    2.7852964e-06   -4.1780354e-06   -1.2045613e-17   -1.2394935e-17   -1.9094784e-06    5.9093009e-06    7.8779831e-06   -1.1816885e-05    2.7852964e-06   -3.4816940e-06   -1.3892964e-06   -1.3617437e-17    2.0898999e-06   -1.1396510e-17   -1.2850582e-17   -1.4131830e-17   -6.9581603e-07    3.9348724e-06   -9.8473711e-06    5.9093009e-06    2.0898999e-06   -6.7116372e-07   -1.6095242e-17    1.3892964e-06   -1.3751239e-17   -2.7852964e-06   -1.6520949e-17   -1.5574569e-17   -2.8613110e-07    3.9348724e-06    1.9094784e-06   -1.7019684e-17   -7.8779831e-06    6.7116372e-07   -2.0898999e-06   -1.4321850e-17    1.3892964e-06   -1.7147452e-17   -1.7022136e-17    6.9581603e-07    1.9094784e-06    2.8613110e-07   -5.9093009e-06   -1.7899285e-17   -1.5529011e-17    6.7116372e-07   -1.3892964e-06   -1.7379721e-17    6.9581603e-07    2.8613110e-07   -3.9348724e-06   -6.7116372e-07   -1.6960884e-17   -1.9565329e-17   -1.8869851e-17   -2.8613110e-07   -1.9094784e-06   -6.9581603e-07
            </DataArray>
            <DataArray type="Float64" Name="fy" NumberOfComponents="1" format="ascii">
               1.1011026e+02   -1.7774671e-13    8.9066513e+01    1.0369458e-03   -1.1011026e+02   -8.9066513e+01    4.3846644e-03   -1.5391746e-03   -2.0451696e-13    6.4618449e-14   -1.1011026e+02    1.4687038e-03   -1.0369458e-03   -8.9066513e+01    1.1629933e-13    6.5510708e-04    1.5391746e-03    8.2378548e-14   -3.7615744e-14    1.0259605e-04    8.9066513e+01   -4.3846644e-03   -1.0369458e-03    9.2814645e-14   -1.2707044e-03    7.9620338e-14    1.5391746e-03   -6.5510708e-04   -2.7484959e-14    5.8217320e-15    1.1011026e+02   -8.5852236e-07   -1.4687038e-03   -4.3846644e-03   -3.1174891e-04    1.2707044e-03   -6.5510708e-04    6.2307798e-14   -1.5391746e-03    4.2972570e-14    4.2993387e-14    6.0645933e-15   -1.0259605e-04    1.0369458e-03   -9.9104102e-07   -1.4687038e-03    7.5144752e-14    6.5510708e-04    3.1586421e-06    1.2707044e-03   -9.4889374e-14    3.1174891e-04    4.6650184e-14    3.3612002e-14   -6.9624923e-07    4.3846644e-03    8.5852230e-07   -1.0259605e-04    3.1174891e-04    4.1668058e-15    4.0936005e-14   -1.2707044e-03    1.3049134e-06   -3.1586421e-06    6.8146877e-14   -4.0800696e-15    8.5852218e-07    9.9104091e-07   -8.7355036e-14    1.4687038e-03   -1.3049133e-06   -3.1174891e-04   -3.1586421e-06    3.8302694e-14   -1.0389606e-13   -8.8556014e-08    9.7880037e-14   -4.1210091e-14    9.9104091e-07    6.9624912e-07    3.6269598e-14    1.0259605e-04    2.6068037e-13   -2.2749511e-13   -1.3049136e-06   -7.6359058e-14    3.1586421e-06    8.8556249e-08    4.6893045e-14    1.4917234e-13    6.9624917e-07    1.9396811e-13   -8.5852230e-07   -5.0884644e-14    1.3049136e-06    3.5527137e-15    2.0194957e-13    8.4932061e-15   -1.7997409e-13    8.8556206e-08   -1.2476825e-13    2.7880476e-14   -1.3331350e-14    2.3463002e-13    3.0754262e-14   -9.9104102e-07   -8.8556199e-08    1.3419127e-13   -4.8315518e-14    8.6049223e-14    8.7284346e-14   -1.3786194e-13   -2.9139885e-14   -1.3811868e-13    2.7288935e-14   -2.0244223e-14   -6.9624906e-07    2.3658679e-13    6.3352101e-15    2.8384239e-13   -1.1220191e-14    1.8252413e-13   -1.1041168e-13   -8.7447410e-15    1.3836154e-14   -4.2355008e-14    5.8709981e-14    4.3587356e-13   -1.0045784e-14   -1.1176650e-13   -6.7838096e-14   -2.5340841e-13   -6.2415351e-14   -2.3770569e-13   -8.5839322e-14   -5.5046245e-14   -2.1146279e-13   -1.8625379e-13   -3.3221516e-13   -2.3457278e-13    1.0298186e-13    2.1164667e-13   -1.7029780e-13   -3.9857007e-14   -7.2084699e-14   -8.3537344e-14   -2.9659955e-13   -2.4314925e-13    5.8519162e-13    2.4158453e-13   -3.4604784e-13   -3.2437941e-13    4.6445486e-14    2.4123065e-14   -7.6601919e-14   -1.4541146e-13   -2.1848842e-14   -4.6879167e-14   -2.9751548e-13   -5.1721474e-13   -5.8904270e-14    5.0258409e-14   -5.2884953e-13    3.8722324e-13   -2.4599940e-13   -8.9164787e-15    5.4687851e-13    2.8173644e-14    2.2794960e-13    4.6092991e-13    2.3126639e-13    1.8089003e-13    1.3497536e-13   -1.0612344e-13    5.5386251e-14    2.4446244e-13    1.9850441e-13    2.3787222e-13    2.0658475e-13    2.8518160e-13    7.3194575e-13   -2.3677935e-13   -1.0763265e-13   -6.3237436e-13   -5.7659433e-13    4.1711773e-13    2.4040318e-13    1.4844202e-13   -1.7222855e-13   -2.0527677e-13    2.0053056e-13   -6.0177557e-14   -2.7382610e-13   -4.3848605e-14   -5.7043432e-13    3.8158192e-13   -9.4083075e-13    1.2993426e-13    1.2650297e-13   -4.4341093e-13   -9.0457156e-14   -1.0007967e-13    2.7905109e-13    3.4248819e-13    8.1360092e-13   -5.3674079e-13   -8.0020430e-13    1.5652757e-13   -2.6983624e-13    1.1483332e-12   -9.2516123e-15   -5.4716301e-13    2.2245226e-13    5.2667419e-13    2.6217223e-13   -3.8927195e-14   -4.1332215e-13   -1.3641007e-12   -7.3935649e-14    3.7908912e-13    5.9078697e-13   -1.3865489e-12   -2.2276018e-13    3.3003288e-13   -5.2101379e-13   -4.2890930e-13    4.1666323e-14   -3.9683794e-13   -4.0336181e-13    1.0014108e-12    4.4953277e-13    1.4094368e-13    1.4808996e-12    3.2961616e-14   -3.5559056e-13    5.5528498e-14    1.1081414e-14    1.4076869e-13   -7.1560813e-14    7.1567318e-13   -3.9989713e-15   -7.6960834e-13   -1.2236154e-13    4.6610285e-13   -3.1547681e-14   -2.6152431e-13   -1.1220885e-13   -1.4368769e-13    1.2621631e-14    1.3985080e-13    5.4366581e-13    8.5706182e-14
            </DataArray>
            <DataArray type="Float64" Name="uz" NumberOfComponents="1" format="ascii">