<?xml version="1.0"?>
<VTKFile type="UnstructuredGrid" version="0.1" byte_order="LittleEndian">
   <UnstructuredGrid>
      <Piece NumberOfPoints="252" NumberOfCells="120">
         <Points>
            <DataArray type="Float64" NumberOfComponents="3" format="ascii">
               0.0000000e+00     0.0000000e+00     0.0000000e+00
               0.0000000e+00     5.0000000e-02     0.0000000e+00
               0.0000000e+00     0.0000000e+00     3.3333330e-02
               5.0000000e-02     0.0000000e+00     0.0000000e+00
               0.0000000e+00     1.0000000e-01     0.0000000e+00
               0.0000000e+00     0.0000000e+00     6.6666670e-02
               1.0000000e-01     0.0000000e+00     0.0000000e+00
               5.0000000e-02     0.0000000e+00     3.3333330e-02
               0.0000000e+00     5.0000000e-02     3.3333330e-02
               5.0000000e-02     5.0000000e-02     0.0000000e+00
               0.0000000e+00     0.0000000e+00     1.0000000e-01
               1.5000000e-01     0.0000000e+00     0.0000000e+00
               5.0000000e-02     1.0000000e-01     0.0000000e+00
               0.0000000e+00     1.0000000e-01     3.3333330e-02
               1.0000000e-01     5.0000000e-02     0.0000000e+00
               1.0000000e-01     0.0000000e+00     3.3333330e-02
               5.0000000e-02     0.0000000e+00     6.6666670e-02
               0.0000000e+00     5.0000000e-02     6.6666670e-02
               5.0000000e-02     5.0000000e-02     3.3333330e-02
               2.0000000e-01     0.0000000e+00     0.0000000e+00
               0.0000000e+00     1.0000000e-01     6.6666670e-02
               1.0000000e-01     1.0000000e-01     0.0000000e+00
               5.0000000e-02     0.0000000e+00     1.0000000e-01
               0.0000000e+00     5.0000000e-02     1.0000000e-01
               1.5000000e-01     0.0000000e+00     3.3333330e-02
               1.5000000e-01     5.0000000e-02     0.0000000e+00
               5.0000000e-02     1.0000000e-01     3.3333330e-02
               1.0000000e-01     0.0000000e+00     6.6666670e-02
               5.0000000e-02     5.0000000e-02     6.6666670e-02
               1.0000000e-01     5.0000000e-02     3.3333330e-02
               0.0000000e+00     1.0000000e-01     1.0000000e-01
               2.5000000e-01     0.0000000e+00     0.0000000e+00
               1.5000000e-01     1.0000000e-01     0.0000000e+00
               1.0000000e-01     0.0000000e+00     1.0000000e-01
               2.0000000e-01     0.0000000e+00     3.3333330e-02
               1.5000000e-01     0.0000000e+00     6.6666670e-02
               1.0000000e-01     1.0000000e-01     3.3333330e-02
               5.0000000e-02     5.0000000e-02     1.0000000e-01
               5.0000000e-02     1.0000000e-01     6.6666670e-02
               2.0000000e-01     5.0000000e-02     0.0000000e+00
               1.5000000e-01     5.0000000e-02     3.3333330e-02
               1.0000000e-01     5.0000000e-02     6.6666670e-02
               2.0000000e-01     1.0000000e-01     0.0000000e+00
               5.0000000e-02     1.0000000e-01     1.0000000e-01
               3.0000000e-01     0.0000000e+00     0.0000000e+00
               1.5000000e-01     0.0000000e+00     1.0000000e-01
               1.0000000e-01     5.0000000e-02     1.0000000e-01
               1.0000000e-01     1.0000000e-01     6.6666670e-02
               2.5000000e-01     0.0000000e+00     3.3333330e-02
               1.5000000e-01     1.0000000e-01     3.3333330e-02
               2.5000000e-01     5.0000000e-02     0.0000000e+00
               2.0000000e-01     0.0000000e+00     6.6666670e-02
               2.0000000e-01     5.0000000e-02     3.3333330e-02
               1.5000000e-01     5.0000000e-02     6.6666670e-02
               3.5000000e-01     0.0000000e+00     0.0000000e+00
               1.0000000e-01     1.0000000e-01     1.0000000e-01
               2.5000000e-01     1.0000000e-01     0.0000000e+00
               2.0000000e-01     0.0000000e+00     1.0000000e-01
               2.0000000e-01     1.0000000e-01     3.3333330e-02
               3.0000000e-01     5.0000000e-02     0.0000000e+00
               1.5000000e-01     5.0000000e-02     1.0000000e-01
               1.5000000e-01     1.0000000e-01     6.6666670e-02
               3.0000000e-01     0.0000000e+00     3.3333330e-02
               2.5000000e-01     0.0000000e+00     6.6666670e-02
               2.5000000e-01     5.0000000e-02     3.3333330e-02
               2.0000000e-01     5.0000000e-02     6.6666670e-02
               2.5000000e-01     0.0000000e+00     1.0000000e-01
               3.0000000e-01     1.0000000e-01     0.0000000e+00
               4.0000000e-01     0.0000000e+00     0.0000000e+00
               1.5000000e-01     1.0000000e-01     1.0000000e-01
               3.0000000e-01     0.0000000e+00     6.6666670e-02
               2.0000000e-01     1.0000000e-01     6.6666670e-02
               2.5000000e-01     1.0000000e-01     3.3333330e-02
               2.0000000e-01     5.0000000e-02     1.0000000e-01
               3.5000000e-01     5.0000000e-02     0.0000000e+00
               3.5000000e-01     0.0000000e+00     3.3333330e-02
               2.5000000e-01     5.0000000e-02     6.6666670e-02
               3.0000000e-01     5.0000000e-02     3.3333330e-02
               3.0000000e-01     0.0000000e+00     1.0000000e-01
               3.5000000e-01     1.0000000e-01     0.0000000e+00
               4.5000000e-01     0.0000000e+00     0.0000000e+00
               2.0000000e-01     1.0000000e-01     1.0000000e-01
               4.0000000e-01     0.0000000e+00     3.3333330e-02
               4.0000000e-01     5.0000000e-02     0.0000000e+00
               3.0000000e-01     1.0000000e-01     3.3333330e-02
               2.5000000e-01     5.0000000e-02     1.0000000e-01
               2.5000000e-01     1.0000000e-01     6.6666670e-02
               3.5000000e-01     0.0000000e+00     6.6666670e-02
               3.0000000e-01     5.0000000e-02     6.6666670e-02
               3.5000000e-01     5.0000000e-02     3.3333330e-02
               3.5000000e-01     0.0000000e+00     1.0000000e-01
               5.0000000e-01     0.0000000e+00     0.0000000e+00
               2.5000000e-01     1.0000000e-01     1.0000000e-01
               4.0000000e-01     1.0000000e-01     0.0000000e+00
               3.0000000e-01     1.0000000e-01     6.6666670e-02
               4.0000000e-01     0.0000000e+00     6.6666670e-02
               4.5000000e-01     5.0000000e-02     0.0000000e+00
               4.5000000e-01     0.0000000e+00     3.3333330e-02
               3.0000000e-01     5.0000000e-02     1.0000000e-01
               3.5000000e-01     1.0000000e-01     3.3333330e-02
               3.5000000e-01     5.0000000e-02     6.6666670e-02
               4.0000000e-01     5.0000000e-02     3.3333330e-02
               4.5000000e-01     1.0000000e-01     0.0000000e+00
               5.5000000e-01     0.0000000e+00     0.0000000e+00
               4.0000000e-01     0.0000000e+00     1.0000000e-01
               3.0000000e-01     1.0000000e-01     1.0000000e-01
               3.5000000e-01     1.0000000e-01     6.6666670e-02
               4.0000000e-01     1.0000000e-01     3.3333330e-02
               5.0000000e-01     5.0000000e-02     0.0000000e+00
               4.5000000e-01     0.0000000e+00     6.6666670e-02
               5.0000000e-01     0.0000000e+00     3.3333330e-02
               3.5000000e-01     5.0000000e-02     1.0000000e-01
               4.5000000e-01     5.0000000e-02     3.3333330e-02
               4.0000000e-01     5.0000000e-02     6.6666670e-02
               4.5000000e-01     0.0000000e+00     1.0000000e-01
               5.0000000e-01     1.0000000e-01     0.0000000e+00
               3.5000000e-01     1.0000000e-01     1.0000000e-01
               6.0000000e-01     0.0000000e+00     0.0000000e+00
               4.0000000e-01     1.0000000e-01     6.6666670e-02
               5.5000000e-01     0.0000000e+00     3.3333330e-02
               5.0000000e-01     0.0000000e+00     6.6666670e-02
               4.0000000e-01     5.0000000e-02     1.0000000e-01
               4.5000000e-01     1.0000000e-01     3.3333330e-02
               5.5000000e-01     5.0000000e-02     0.0000000e+00
               5.0000000e-01     5.0000000e-02     3.3333330e-02
               4.5000000e-01     5.0000000e-02     6.6666670e-02
               5.0000000e-01     0.0000000e+00     1.0000000e-01
               6.5000000e-01     0.0000000e+00     0.0000000e+00
               5.5000000e-01     1.0000000e-01     0.0000000e+00
               4.0000000e-01     1.0000000e-01     1.0000000e-01
               4.5000000e-01     5.0000000e-02     1.0000000e-01
               4.5000000e-01     1.0000000e-01     6.6666670e-02
               5.5000000e-01     0.0000000e+00     6.6666670e-02
               6.0000000e-01     0.0000000e+00     3.3333330e-02
               6.0000000e-01     5.0000000e-02     0.0000000e+00
               5.0000000e-01     1.0000000e-01     3.3333330e-02
               5.5000000e-01     5.0000000e-02     3.3333330e-02
               5.0000000e-01     5.0000000e-02     6.6666670e-02
               6.0000000e-01     1.0000000e-01     0.0000000e+00
               5.5000000e-01     0.0000000e+00     1.0000000e-01
               4.5000000e-01     1.0000000e-01     1.0000000e-01
               7.0000000e-01     0.0000000e+00     0.0000000e+00
               6.5000000e-01     5.0000000e-02     0.0000000e+00
               5.0000000e-01     1.0000000e-01     6.6666670e-02
               5.0000000e-01     5.0000000e-02     1.0000000e-01
               5.5000000e-01     1.0000000e-01     3.3333330e-02
               6.5000000e-01     0.0000000e+00     3.3333330e-02
               6.0000000e-01     0.0000000e+00     6.6666670e-02
               5.5000000e-01     5.0000000e-02     6.6666670e-02
[...]
         <PointData>
            <DataArray type="Int32" Name="node-id" NumberOfComponents="1" format="ascii">
               1  2  3  4  5  6  7  8  9  10  11  12  13  14  15  16  17  18  19  20  21  22  23  24  25  26  27  28  29  30  31  32  33  34  35  36  37  38  39  40  41  42  43  44  45  46  47  48  49  50  51  52  53  54  55  56  57  58  59  60  61  62  63  64  65  66  67  68  69  70  71  72  73  74  75  76  77  78  79  80  81  82  83  84  85  86  87  88  89  90  91  92  93  94  95  96  97  98  99  100  101  102  103  104  105  106  107  108  109  110  111  112  113  114  115  116  117  118  119  120  121  122  123  124  125  126  127  128  129  130  131  132  133  134  135  136  137  138  139  140  141  142  143  144  145  146  147  148  149  150  151  152  153  154  155  156  157  158  159  160  161  162  163  164  165  166  167  168  169  170  171  172  173  174  175  176  177  178  179  180  181  182  183  184  185  186  187  188  189  190  191  192  193  194  195  196  197  198  199  200  201  202  203  204  205  206  207  208  209  210  211  212  213  214  215  216  217  218  219  220  221  222  223  224  225  226  227  228  229  230  231  232  233  234  235  236  237  238  239  240  241  242  243  244  245  246  247  248  249  250  251  252  
            </DataArray>
            <DataArray type="Float64" Name="ux" NumberOfComponents="1" format="ascii">
               0.0000000e+00    0.0000000e+00    0.0000000e+00   -3.2794432e-04    0.0000000e+00    0.0000000e+00   -7.5328373e-04   -1.0398366e-04    0.0000000e+00   -3.0184229e-04    0.0000000e+00   -1.1342515e-03   -3.2794432e-04    0.0000000e+00   -7.5593340e-04   -2.5158908e-04    1.0398366e-04    0.0000000e+00   -9.4003721e-05   -1.4209471e-03    0.0000000e+00   -7.5328373e-04    3.2794432e-04    0.0000000e+00   -3.7969969e-04   -1.1493159e-03   -1.0398366e-04    2.5158908e-04    9.4003721e-05   -2.5309707e-04    0.0000000e+00   -1.6271087e-03   -1.1342515e-03    7.5328373e-04   -4.7366720e-04    3.7969969e-04   -2.5158908e-04    3.0184229e-04    1.0398366e-04   -1.4311533e-03   -3.8358700e-04    2.5309707e-04   -1.4209471e-03    3.2794432e-04   -1.7878589e-03    1.1342515e-03    7.5593340e-04    2.5158908e-04   -5.4002664e-04   -3.7969969e-04   -1.6319698e-03    4.7366720e-04   -4.7766152e-04    3.8358700e-04   -1.9211972e-03    7.5328373e-04   -1.6271087e-03    1.4209471e-03   -4.7366720e-04   -1.7906151e-03    1.1493159e-03    3.7969969e-04   -5.9375406e-04    5.4002664e-04   -5.4262165e-04    4.7766152e-04    1.6271087e-03   -1.7878589e-03   -2.0376772e-03    1.1342515e-03    5.9375406e-04    4.7366720e-04   -5.4002664e-04    1.4311533e-03   -1.9225187e-03   -6.3887058e-04    5.4262165e-04   -5.9527345e-04    1.7878589e-03   -1.9211972e-03   -2.1445903e-03    1.4209471e-03   -6.7817664e-04   -2.0382833e-03   -5.9375406e-04    1.6319698e-03    5.4002664e-04    6.3887058e-04    5.9527345e-04   -6.3972006e-04    1.9211972e-03   -2.2421025e-03    1.6271087e-03   -2.0376772e-03    5.9375406e-04    6.7817664e-04   -2.1450191e-03   -7.1378041e-04    1.7906151e-03   -6.3887058e-04    6.3972006e-04   -6.7856011e-04   -2.1445903e-03   -2.3303423e-03    2.0376772e-03    1.7878589e-03    6.3887058e-04   -6.7817664e-04   -2.2425542e-03    7.1378041e-04   -7.4629276e-04    1.9225187e-03   -7.1405474e-04    6.7856011e-04    2.1445903e-03   -2.2421025e-03    1.9211972e-03   -2.4092929e-03    6.7817664e-04   -7.7570381e-04    7.4629276e-04    2.0382833e-03   -7.1378041e-04   -2.3307938e-03   -7.4657594e-04    7.1405474e-04    2.2421025e-03   -2.4789553e-03   -2.3303423e-03    2.0376772e-03    2.1450191e-03    7.1378041e-04    7.7570381e-04   -8.0202112e-04   -2.4097445e-03   -7.4629276e-04   -7.7598903e-04    7.4657594e-04   -2.4092929e-03    2.3303423e-03    2.1445903e-03   -2.5393295e-03   -2.4794070e-03    7.4629276e-04    2.2425542e-03   -7.7570381e-04   -8.2524191e-04    8.0202112e-04    7.7598903e-04   -8.0230576e-04   -2.4789553e-03   -2.5904153e-03    2.2421025e-03    2.4092929e-03   -8.4536657e-04    7.7570381e-04   -2.5397809e-03   -8.0202112e-04    2.3307938e-03    8.2524191e-04    8.0230576e-04   -8.2552660e-04   -2.6322128e-03    2.4789553e-03   -2.5393295e-03    2.3303423e-03   -8.6239516e-04    2.4097445e-03    8.4536657e-04   -2.5908668e-03   -8.2524191e-04    8.0202112e-04   -8.4565132e-04    8.2552660e-04   -2.5904153e-03    2.5393295e-03   -2.6647220e-03    2.4092929e-03    2.4794070e-03    8.2524191e-04   -8.7632786e-04   -2.6326643e-03   -8.4536657e-04    8.6239516e-04    8.4565132e-04   -8.6267991e-04   -2.6879341e-03   -2.6322128e-03    2.4789553e-03    2.5904153e-03   -8.8716333e-04   -8.6239516e-04   -2.6651735e-03    2.5397809e-03    8.7632786e-04    8.4536657e-04    8.6267991e-04   -8.7661226e-04   -2.7019281e-03   -2.6647220e-03    2.6322128e-03    2.5393295e-03   -8.7632786e-04    8.6239516e-04   -8.9490268e-04   -2.6884021e-03    8.8716333e-04    2.5908668e-03    8.7661226e-04   -8.8744919e-04   -2.7067107e-03   -2.6879341e-03    2.5904153e-03    2.6647220e-03   -8.8716333e-04   -8.9957286e-04   -2.7022604e-03    8.9490268e-04    2.6326643e-03    8.7632786e-04   -8.9519186e-04    8.8744919e-04   -9.0117735e-04    2.6879341e-03   -2.7019281e-03   -2.7068914e-03    2.6322128e-03    8.9957286e-04    8.8716333e-04    2.6651735e-03   -8.9490268e-04    8.9519186e-04   -8.9980091e-04   -2.7067107e-03    2.7019281e-03    9.0117735e-04    2.6647220e-03   -9.0134260e-04    2.6884021e-03   -8.9957286e-04    8.9490268e-04    8.9980091e-04    2.7067107e-03   -9.0117735e-04    2.6879341e-03    8.9957286e-04    2.7022604e-03    9.0134260e-04    2.7068914e-03    9.0117735e-04    2.7019281e-03    2.7067107e-03
            </DataArray>
            <DataArray type="Float64" Name="fx" NumberOfComponents="1" format="ascii">
               2.8192923e+02    5.0988339e+02    2.4248634e+02   -2.4753392e-05    2.8192923e+02   -2.4248634e+02   -1.7197854e-03   -2.0857165e-03    4.2915915e+02    2.8786128e-03   -2.8192923e+02   -1.6121402e-03   -2.4753392e-05    2.4248634e+02   -3.8740875e-03    1.7290427e-03    2.0857165e-03   -4.2915915e+02    5.3075765e-04    2.0437590e-04   -2.4248634e+02   -1.7197854e-03    2.4753392e-05   -5.0988339e+02    2.3832177e-03   -4.7528637e-03   -2.0857165e-03   -1.7290427e-03   -5.3075765e-04    4.0868339e-03   -2.8192923e+02    2.8335158e-05   -1.6121402e-03    1.7197854e-03   -5.4524855e-05   -2.3832177e-03    1.7290427e-03   -2.8786128e-03    2.0857165e-03    1.1661720e-04    2.1696712e-03   -4.0868339e-03    2.0437590e-04    2.4753392e-05    1.3974482e-06    1.6121402e-03    3.8740875e-03   -1.7290427e-03   -1.5609949e-05    2.3832177e-03    1.6837861e-05    5.4524855e-05   -9.7849744e-04   -2.1696712e-03    7.8871045e-07    1.7197854e-03    2.8335158e-05   -2.0437590e-04   -5.4524855e-05   -8.3048762e-06    4.7528637e-03   -2.3832177e-03   -4.3702400e-08    1.5609949e-05   -6.6119581e-05    9.7849744e-04   -2.8335158e-05    1.3974482e-06   -1.2545520e-14    1.6121402e-03    4.3702432e-08    5.4524855e-05   -1.5609949e-05   -1.1661720e-04   -1.3136845e-06   -2.6610145e-09    6.6119581e-05    3.7831401e-06   -1.3974480e-06    7.8871045e-07    2.7422509e-14   -2.0437590e-04   -2.5618396e-14   -6.4392935e-14   -4.3702364e-08   -1.6837861e-05    1.5609949e-05    2.6609572e-09   -3.7831403e-06   -3.3810386e-07   -7.8871051e-07    1.8651747e-14   -2.8335158e-05   -4.3964832e-14    4.3702329e-08    5.6510352e-14   -4.4408921e-15   -5.4123372e-14    8.3048762e-06   -2.6609799e-09    3.3810372e-07    3.7997383e-14    1.1435297e-14   -1.7708057e-14    1.6431301e-14   -1.3974482e-06    2.6610127e-09   -2.4674707e-14    5.8786309e-14    6.0063066e-14   -8.0935258e-14    1.3136845e-06    3.4444669e-14    1.1821100e-13   -1.2989609e-14   -1.2767565e-15   -7.8871045e-07    1.4321877e-14    7.2719608e-15   -1.1518564e-14    1.2675971e-13    3.8191672e-14    2.6756375e-14   -7.9325435e-14   -1.6348034e-14   -7.0832229e-14    5.3124172e-14    9.7477582e-14    3.8191672e-14    2.4313884e-14    3.6970427e-14   -9.1454622e-14   -5.9396932e-14   -2.2121194e-14    6.4948047e-14   -1.6209256e-14    7.4634743e-14   -1.1085577e-13   -5.7176486e-15   -1.7097435e-14   -1.5543122e-14    1.1662893e-13    9.6200825e-14    3.4833247e-14    2.1649349e-15    7.5384143e-14   -3.2890357e-14   -1.5912272e-13   -7.2220008e-14   -8.2434060e-15   -4.9238391e-14   -1.0824674e-14    1.6542323e-14   -9.9920072e-14   -6.0090821e-14    2.8282932e-14    1.2267964e-13   -6.6280315e-14   -6.9610984e-14    1.7014168e-14   -1.9539925e-13   -5.1181281e-14   -3.7830850e-14    1.5926149e-13   -2.2370994e-14    3.3417713e-14    7.5370266e-14   -5.1458837e-14   -1.6024682e-13   -6.7723605e-14   -2.6950664e-14   -5.5067062e-14   -8.7957419e-14   -3.3695269e-14    4.3159920e-14    1.6464607e-13   -6.9028117e-14    1.6042723e-14    4.1633363e-15   -1.1463053e-14   -1.7634505e-13   -2.1094237e-13   -4.2910120e-14    7.9269924e-14    1.0226542e-13    3.7289616e-14   -1.3126999e-13   -1.8096635e-14   -4.2632564e-14   -8.5320639e-14    1.6862900e-13    1.6472934e-14    1.3711254e-14    1.4033219e-13    8.2850393e-15    9.4965702e-14    8.3669183e-14   -6.1381455e-14   -4.6643245e-14    7.5661699e-14    3.2474023e-14   -5.2347016e-14    1.1488033e-13    6.5225603e-16    1.8440804e-13    5.2735594e-14   -1.8873791e-15   -3.2751579e-15    1.1103618e-13    7.0041195e-14   -2.1131968e-14    1.5357160e-13   -4.1633363e-15   -7.2442052e-14   -6.0285110e-14    1.2109758e-13    1.1281948e-13    5.6616170e-14    1.3966606e-13    5.0411064e-14   -1.2768953e-13    7.4232287e-14   -3.4888759e-14   -9.7089004e-14    1.4711149e-13   -1.2514425e-13    7.6882944e-15    9.4976110e-14    3.6970427e-14    6.0784711e-15   -2.6662006e-13   -7.2277254e-14    4.5692616e-14   -1.3195434e-13   -4.2445214e-14    2.6173508e-14   -4.4686477e-14    6.8327288e-14   -9.0927266e-14    1.5229484e-13   -8.4142762e-14   -4.4639639e-14    6.2448961e-15   -1.1066842e-13   -1.1354806e-13    2.1657676e-13   -4.9189819e-14    1.1745466e-13   -4.5615353e-14    6.1346761e-14   -1.6486812e-14   -6.2951380e-14
            </DataArray>
            <DataArray type="Float64" Name="uy" NumberOfComponents="1" format="ascii">
               0.0000000e+00    0.0000000e+00    0.0000000e+00   -1.6048433e-04    0.0000000e+00    0.0000000e+00   -1.7847032e-04   -3.9264123e-05    0.0000000e+00   -9.9781614e-18    0.0000000e+00   -1.2818949e-04    1.6048433e-04    0.0000000e+00   -1.9544813e-16   -4.3854630e-05    3.9264123e-05    0.0000000e+00   -4.2184832e-17   -7.8197132e-05    0.0000000e+00    1.7847032e-04    1.6048433e-04    0.0000000e+00   -3.2436379e-05   -5.4392951e-16    3.9264123e-05    4.3854630e-05   -4.0787244e-17   -2.2428217e-16    0.0000000e+00   -4.8339443e-05    1.2818949e-04    1.7847032e-04   -2.0676980e-05    3.2436379e-05    4.3854630e-05   -6.1471199e-18   -3.9264123e-05   -1.0002516e-15   -5.7079200e-16   -2.1963226e-16    7.8197132e-05   -1.6048433e-04   -3.2756929e-05    1.2818949e-04   -1.8151677e-16   -4.3854630e-05   -1.3267327e-05    3.2436379e-05   -1.5129794e-15    2.0676980e-05   -1.0108877e-15   -5.6354648e-16   -2.3815432e-05   -1.7847032e-04    4.8339443e-05    7.8197132e-05    2.0676980e-05   -2.0467118e-15   -5.2234473e-16   -3.2436379e-05   -1.0229922e-05    1.3267327e-05   -1.5175660e-15   -1.0027799e-15    4.8339443e-05    3.2756929e-05   -2.0508049e-05   -1.2818949e-04    1.0229922e-05   -2.0676980e-05    1.3267327e-05   -9.7579265e-16   -2.6017002e-15   -8.2616862e-06   -1.5094022e-15   -2.0490392e-15    3.2756929e-05    2.3815432e-05   -1.8904833e-05   -7.8197132e-05   -7.2705557e-06   -3.1648617e-15    1.0229922e-05   -1.4882248e-15   -1.3267327e-05    8.2616862e-06   -2.0413505e-15   -2.5991765e-15    2.3815432e-05   -1.7186949e-05   -4.8339443e-05    2.0508049e-05   -1.0229922e-05    7.2705557e-06   -3.7227721e-15   -6.6752873e-06   -2.0234851e-15    8.2616862e-06   -2.5920640e-15   -3.1578619e-15    1.8904833e-05   -1.5468497e-05    2.0508049e-05   -3.2756929e-05   -8.2616862e-06    7.2705557e-06   -4.2818117e-15    6.6752868e-06   -6.0790030e-06   -2.5804287e-15   -3.7173248e-15   -3.1516006e-15    1.8904833e-05    1.7186949e-05   -2.3815432e-05   -1.3749400e-05   -7.2705557e-06   -5.4686789e-06    6.0790030e-06   -3.1457091e-15    6.6752868e-06   -4.8410970e-15   -4.2769713e-15   -3.7117009e-15    1.7186949e-05   -1.2030815e-05    1.5468497e-05   -2.0508049e-05   -3.7056861e-15   -6.6752873e-06    5.4686789e-06   -4.8613820e-06   -5.4003788e-15    6.0790030e-06   -4.8364789e-15   -4.2717087e-15    1.3749400e-05    1.5468497e-05   -1.8904833e-05   -1.0312117e-05   -5.9605670e-15   -6.0790030e-06   -4.2667811e-15    5.4686789e-06   -4.2536626e-06    4.8613820e-06   -4.8319223e-15   -5.3962970e-15    1.2030815e-05   -8.5934043e-06   -1.7186949e-05    1.3749400e-05   -3.6460051e-06   -5.4686789e-06   -6.5194699e-15    4.8613820e-06   -4.8272869e-15    4.2536626e-06   -5.3919208e-15   -5.9561705e-15   -6.8747986e-06    1.2030815e-05    1.0312117e-05   -1.5468497e-05   -3.0383337e-06   -5.3878339e-15    3.6460051e-06   -7.0779234e-15    4.2536626e-06   -4.8613820e-06   -6.5159272e-15   -5.9521098e-15    8.5934043e-06    1.0312117e-05   -5.1568090e-06   -1.3749400e-05   -5.9477044e-15   -4.2536626e-06   -2.4306162e-06   -7.6367830e-15    3.6460051e-06    3.0383337e-06   -6.5122718e-15   -7.0754864e-15   -3.4338047e-06    6.8747986e-06   -1.2030815e-05    8.5934043e-06   -1.8237714e-06    3.0383337e-06   -8.1962796e-15   -6.5088722e-15    2.4306160e-06   -3.6460051e-06   -7.0727391e-15   -7.6352626e-15   -1.6663249e-06    5.1568090e-06    6.8747986e-06   -1.0312117e-05    2.4306160e-06   -3.0383337e-06   -1.2123830e-06   -8.7556212e-15    1.8237714e-06   -7.0704419e-15   -7.6332102e-15   -8.1949650e-15   -6.0721061e-07    3.4338047e-06   -8.5934043e-06    5.1568090e-06    1.8237714e-06   -5.8569759e-07   -9.3152872e-15    1.2123829e-06   -7.6309334e-15   -2.4306162e-06   -8.7544675e-15   -8.1932963e-15   -2.4969509e-07    3.4338047e-06    1.6663249e-06   -9.8748117e-15   -6.8747986e-06    5.8569753e-07   -1.8237714e-06   -8.1913990e-15    1.2123829e-06   -8.7535934e-15   -9.3141971e-15    6.0721061e-07    1.6663249e-06    2.4969506e-07   -5.1568090e-06   -9.8744780e-15   -8.7526032e-15    5.8569753e-07   -1.2123830e-06   -9.3134644e-15    6.0721061e-07    2.4969506e-07   -3.4338047e-06   -5.8569759e-07   -9.3128613e-15   -9.8734362e-15   -9.8736657e-15   -2.4969509e-07   -1.6663249e-06   -6.0721061e-07
            </DataArray>
            <DataArray type="Float64" Name="fy" NumberOfComponents="1" format="ascii">
               1.0749141e+02   -6.7528982e-11    8.5908607e+01    1.9854154e-03   -1.0749141e+02   -8.5908607e+01    3.8987510e-03   -2.0226731e-03   -4.5662071e-11   -1.1301723e-13   -1.0749141e+02    2.7413375e-03   -1.9854154e-03   -8.5908607e+01    7.2143680e-14   -3.3098113e-04    2.0226731e-03   -4.5455084e-11   -1.0252424e-12    3.9939830e-04    8.5908607e+01   -3.8987510e-03   -1.9854154e-03   -6.3942296e-11   -2.3079629e-03    1.0036763e-13    2.0226731e-03    3.3098113e-04   -9.9671660e-13   -1.1066217e-12    1.0749141e+02    3.5728026e-05   -2.7413375e-03   -3.8987510e-03   -8.5690728e-04    2.3079629e-03    3.3098113e-04   -6.4469263e-14   -2.0226731e-03    4.7739590e-14   -1.3983953e-13   -1.1085854e-12   -3.9939830e-04    1.9854154e-03    6.4214169e-06   -2.7413375e-03    5.6780969e-14   -3.3098113e-04   -4.8594527e-05    2.3079629e-03    1.9456659e-14    8.5690728e-04   -8.3093254e-14   -1.6539548e-13   -1.4168982e-07    3.8987510e-03   -3.5728026e-05   -3.9939830e-04    8.5690728e-04    3.6318604e-14    8.0185858e-14   -2.3079629e-03   -6.0652854e-07    4.8594527e-05    3.2682190e-14   -9.1898711e-14   -3.5728026e-05   -6.4214169e-06   -4.7688416e-14    2.7413375e-03    6.0652860e-07   -8.5690728e-04    4.8594527e-05    2.6808417e-14    2.0069016e-14   -1.1455977e-07    1.3461454e-14   -1.2612134e-13   -6.4214169e-06    1.4168988e-07    2.6393818e-14    3.9939830e-04   -8.8795291e-14    4.5168730e-14    6.0652854e-07    3.2487901e-14   -4.8594527e-05    1.1455977e-07    7.4870665e-15   -8.9650509e-14    1.4168987e-07   -5.0428411e-15    3.5728026e-05    8.7003321e-14   -6.0652854e-07    5.4185822e-14    3.4098592e-14   -2.8156297e-14   -3.3115871e-14    1.1455976e-07    5.7933693e-14   -8.8847332e-14    6.4236810e-14   -5.4190593e-14   -3.9170923e-14    6.4214169e-06   -1.1455970e-07    7.1350911e-14    1.7340383e-13    9.9850683e-14   -1.0533067e-13   -3.4038744e-14   -1.1997001e-13    9.4726310e-14   -7.1504434e-14    6.6436873e-14   -1.4168991e-07   -1.4740422e-13    1.1829079e-14   -1.3724785e-13    9.5077592e-14   -1.9686509e-14    2.0008301e-14    1.0519884e-13   -1.3057871e-13   -5.8300587e-14    8.2217219e-14   -5.7022095e-14    6.8388871e-14   -7.8026561e-14    6.0411311e-14   -2.4711136e-14    2.2125878e-13   -1.2747529e-13    4.2050131e-14    1.4552595e-14   -1.0366274e-13   -1.6753265e-13   -4.0606407e-14    2.0906454e-14   -1.1196773e-14    1.4712146e-13   -4.6301938e-14    4.7480249e-14   -8.5916517e-14   -4.8619095e-14   -7.4229685e-14   -2.0380399e-14   -3.1299616e-14    1.7092491e-13   -1.0509519e-13    2.3826167e-13    7.1383871e-15   -7.0066349e-14   -2.5243089e-13    3.2853061e-14   -9.8689286e-14   -2.4722412e-14   -7.9079972e-14   -2.7452433e-13    1.4051867e-13    1.2945808e-13    6.6994587e-14   -1.6640335e-14   -1.3029595e-13    1.7428333e-14   -1.6024855e-13    6.0221359e-14   -1.7640837e-13   -5.5694598e-14    1.6065274e-13    2.8229155e-14    1.3082938e-13   -2.2784725e-14   -1.4021987e-13    1.3740788e-13   -1.5948614e-14   -6.3833487e-15    9.0981910e-15    2.5128424e-13    1.0191500e-15    1.4765359e-13    2.7713942e-13   -1.3672050e-13   -8.7788284e-14   -1.2954828e-13   -7.7610227e-14   -2.0427670e-14    6.0582615e-14    1.6768271e-14   -3.8331317e-14    8.3226828e-14    5.3065191e-15    9.9011511e-14   -1.4171888e-13   -4.7193152e-15    1.4154823e-13    8.1831243e-15    3.1852992e-14    8.6170220e-14    5.6547215e-14   -4.4527316e-14   -1.2370010e-13    2.7302292e-13    2.3236621e-14    1.3459459e-13    3.1960654e-14   -8.5084283e-14    7.9726590e-14    8.5450744e-14    3.2521254e-15    1.2855819e-13   -8.0531068e-14    1.9839599e-14    8.0162006e-14    2.4177925e-14    2.2851989e-13   -8.3592638e-14   -1.3601403e-13    1.4283540e-13   -4.3927969e-14   -1.1446139e-14   -9.3477743e-15    3.4148465e-14   -2.5839140e-14    1.4444140e-13   -8.2500413e-14   -5.5273494e-14   -2.7133623e-14   -8.9286217e-14   -5.5679636e-14   -4.4919580e-14   -8.8736527e-14   -5.1290515e-14    6.1751819e-15   -7.5198094e-14   -1.0204858e-13    6.8582997e-14   -2.1718304e-14   -1.4146366e-13    5.9186271e-14   -2.6909529e-13    7.6446390e-14   -1.6684592e-13   -4.4329991e-14    2.1195177e-13   -1.5259929e-14   -1.3532113e-13    1.9038211e-14    1.1505163e-13    6.9168629e-14    1.9284162e-14
            </DataArray>
            <DataArray type="Float64" Name="uz" NumberOfComponents="1" format="ascii">