<?xml version="1.0"?>
<VTKFile type="UnstructuredGrid" version="0.1" byte_order="LittleEndian">
   <UnstructuredGrid>
      <Piece NumberOfPoints="252" NumberOfCells="120">
         <Points>
            <DataArray type="Float64" NumberOfComponents="3" format="ascii">
               0.0000000e+00     0.0000000e+00     0.0000000e+00
               0.0000000e+00     5.0000000e-02     0.0000000e+00
               0.0000000e+00     0.0000000e+00     3.3333330e-02
               5.0000000e-02     0.0000000e+00     0.0000000e+00
               0.0000000e+00     1.0000000e-01     0.0000000e+00
               0.0000000e+00     0.0000000e+00     6.6666670e-02
               1.0000000e-01     0.0000000e+00     0.0000000e+00
               5.0000000e-02     0.0000000e+00     3.3333330e-02
               0.0000000e+00     5.0000000e-02     3.3333330e-02
               5.0000000e-02     5.0000000e-02     0.0000000e+00
               0.0000000e+00     0.0000000e+00     1.0000000e-01
               1.5000000e-01     0.0000000e+00     0.0000000e+00
               5.0000000e-02     1.0000000e-01     0.0000000e+00
               0.0000000e+00     1.0000000e-01     3.3333330e-02
               1.0000000e-01     5.0000000e-02     0.0000000e+00
               1.0000000e-01     0.0000000e+00     3.3333330e-02
               5.0000000e-02     0.0000000e+00     6.6666670e-02
               0.0000000e+00     5.0000000e-02     6.6666670e-02
               5.0000000e-02     5.0000000e-02     3.3333330e-02
               2.0000000e-01     0.0000000e+00     0.0000000e+00
               0.0000000e+00     1.0000000e-01     6.6666670e-02
               1.0000000e-01     1.0000000e-01     0.0000000e+00
               5.0000000e-02     0.0000000e+00     1.0000000e-01
               0.0000000e+00     5.0000000e-02     1.0000000e-01
               1.5000000e-01     0.0000000e+00     3.3333330e-02
               1.5000000e-01     5.0000000e-02     0.0000000e+00
               5.0000000e-02     1.0000000e-01     3.3333330e-02
               1.0000000e-01     0.0000000e+00     6.6666670e-02
               5.0000000e-02     5.0000000e-02     6.6666670e-02
               1.0000000e-01     5.0000000e-02     3.3333330e-02
               0.0000000e+00     1.0000000e-01     1.0000000e-01
               2.5000000e-01     0.0000000e+00     0.0000000e+00
               1.5000000e-01     1.0000000e-01     0.0000000e+00
               1.0000000e-01     0.0000000e+00     1.0000000e-01
               2.0000000e-01     0.0000000e+00     3.3333330e-02
               1.5000000e-01     0.0000000e+00     6.6666670e-02
               1.0000000e-01     1.0000000e-01     3.3333330e-02
               5.0000000e-02     5.0000000e-02     1.0000000e-01
               5.0000000e-02     1.0000000e-01     6.6666670e-02
               2.0000000e-01     5.0000000e-02     0.0000000e+00
               1.5000000e-01     5.0000000e-02     3.3333330e-02
               1.0000000e-01     5.0000000e-02     6.6666670e-02
               2.0000000e-01     1.0000000e-01     0.0000000e+00
               5.0000000e-02     1.0000000e-01     1.0000000e-01
               3.0000000e-01     0.0000000e+00     0.0000000e+00
               1.5000000e-01     0.0000000e+00     1.0000000e-01
               1.0000000e-01     5.0000000e-02     1.0000000e-01
               1.0000000e-01     1.0000000e-01     6.6666670e-02
               2.5000000e-01     0.0000000e+00     3.3333330e-02
               1.5000000e-01     1.0000000e-01     3.3333330e-02
               2.5000000e-01     5.0000000e-02     0.0000000e+00
               2.0000000e-01     0.0000000e+00     6.6666670e-02
               2.0000000e-01     5.0000000e-02     3.3333330e-02
               1.5000000e-01     5.0000000e-02     6.6666670e-02
               3.5000000e-01     0.0000000e+00     0.0000000e+00
               1.0000000e-01     1.0000000e-01     1.0000000e-01
               2.5000000e-01     1.0000000e-01     0.0000000e+00
               2.0000000e-01     0.0000000e+00     1.0000000e-01
               2.0000000e-01     1.0000000e-01     3.3333330e-02
               3.0000000e-01     5.0000000e-02     0.0000000e+00
               1.5000000e-01     5.0000000e-02     1.0000000e-01
               1.5000000e-01     1.0000000e-01     6.6666670e-02
               3.0000000e-01     0.0000000e+00     3.3333330e-02
               2.5000000e-01     0.0000000e+00     6.6666670e-02
               2.5000000e-01     5.0000000e-02     3.3333330e-02
               2.0000000e-01     5.0000000e-02     6.6666670e-02
               2.5000000e-01     0.0000000e+00     1.0000000e-01
               3.0000000e-01     1.0000000e-01     0.0000000e+00
               4.0000000e-01     0.0000000e+00     0.0000000e+00
               1.5000000e-01     1.0000000e-01     1.0000000e-01
               3.0000000e-01     0.0000000e+00     6.6666670e-02
               2.0000000e-01     1.0000000e-01     6.6666670e-02
               2.5000000e-01     1.0000000e-01     3.3333330e-02
               2.0000000e-01     5.0000000e-02     1.0000000e-01
               3.5000000e-01     5.0000000e-02     0.0000000e+00
               3.5000000e-01     0.0000000e+00     3.3333330e-02
               2.5000000e-01     5.0000000e-02     6.6666670e-02
               3.0000000e-01     5.0000000e-02     3.3333330e-02
               3.0000000e-01     0.0000000e+00     1.0000000e-01
               3.5000000e-01     1.0000000e-01     0.0000000e+00
               4.5000000e-01     0.0000000e+00     0.0000000e+00
               2.0000000e-01     1.0000000e-01     1.0000000e-01
               4.0000000e-01     0.0000000e+00     3.3333330e-02
               4.0000000e-01     5.0000000e-02     0.0000000e+00
               3.0000000e-01     1.0000000e-01     3.3333330e-02
               2.5000000e-01     5.0000000e-02     1.0000000e-01
               2.5000000e-01     1.0000000e-01     6.6666670e-02
               3.5000000e-01     0.0000000e+00     6.6666670e-02
               3.0000000e-01     5.0000000e-02     6.6666670e-02
               3.5000000e-01     5.0000000e-02     3.3333330e-02
               3.5000000e-01     0.0000000e+00     1.0000000e-01
               5.0000000e-01     0.0000000e+00     0.0000000e+00
               2.5000000e-01     1.0000000e-01     1.0000000e-01
               4.0000000e-01     1.0000000e-01     0.0000000e+00
               3.0000000e-01     1.0000000e-01     6.6666670e-02
               4.0000000e-01     0.0000000e+00     6.6666670e-02
               4.5000000e-01     5.0000000e-02     0.0000000e+00
               4.5000000e-01     0.0000000e+00     3.3333330e-02
               3.0000000e-01     5.0000000e-02     1.0000000e-01
               3.5000000e-01     1.0000000e-01     3.3333330e-02
               3.5000000e-01     5.0000000e-02     6.6666670e-02
               4.0000000e-01     5.0000000e-02     3.3333330e-02
               4.5000000e-01     1.0000000e-01     0.0000000e+00
               5.5000000e-01     0.0000000e+00     0.0000000e+00
               4.0000000e-01     0.0000000e+00     1.0000000e-01
               3.0000000e-01     1.0000000e-01     1.0000000e-01
               3.5000000e-01     1.0000000e-01     6.6666670e-02
               4.0000000e-01     1.0000000e-01     3.3333330e-02
               5.0000000e-01     5.0000000e-02     0.0000000e+00
               4.5000000e-01     0.0000000e+00     6.6666670e-02
               5.0000000e-01     0.0000000e+00     3.3333330e-02
               3.5000000e-01     5.0000000e-02     1.0000000e-01
               4.5000000e-01     5.0000000e-02     3.3333330e-02
               4.0000000e-01     5.0000000e-02     6.6666670e-02
               4.5000000e-01     0.0000000e+00     1.0000000e-01
               5.0000000e-01     1.0000000e-01     0.0000000e+00
               3.5000000e-01     1.0000000e-01     1.0000000e-01
               6.0000000e-01     0.0000000e+00     0.0000000e+00
               4.0000000e-01     1.0000000e-01     6.6666670e-02
               5.5000000e-01     0.0000000e+00     3.3333330e-02
               5.0000000e-01     0.0000000e+00     6.6666670e-02
               4.0000000e-01     5.0000000e-02     1.0000000e-01
               4.5000000e-01     1.0000000e-01     3.3333330e-02
               5.5000000e-01     5.0000000e-02     0.0000000e+00
               5.0000000e-01     5.0000000e-02     3.3333330e-02
               4.5000000e-01     5.0000000e-02     6.6666670e-02
               5.0000000e-01     0.0000000e+00     1.0000000e-01
               6.5000000e-01     0.0000000e+00     0.0000000e+00
               5.5000000e-01     1.0000000e-01     0.0000000e+00
               4.0000000e-01     1.0000000e-01     1.0000000e-01
               4.5000000e-01     5.0000000e-02     1.0000000e-01
               4.5000000e-01     1.0000000e-01     6.6666670e-02
               5.5000000e-01     0.0000000e+00     6.6666670e-02
               6.0000000e-01     0.0000000e+00     3.3333330e-02
               6.0000000e-01     5.0000000e-02     0.0000000e+00
               5.0000000e-01     1.0000000e-01     3.3333330e-02
               5.5000000e-01     5.0000000e-02     3.3333330e-02
               5.0000000e-01     5.0000000e-02     6.6666670e-02
               6.0000000e-01     1.0000000e-01     0.0000000e+00
               5.5000000e-01     0.0000000e+00     1.0000000e-01
               4.5000000e-01     1.0000000e-01     1.0000000e-01
               7.0000000e-01     0.0000000e+00     0.0000000e+00
               6.5000000e-01     5.0000000e-02     0.0000000e+00
               5.0000000e-01     1.0000000e-01     6.6666670e-02
               5.0000000e-01     5.0000000e-02     1.0000000e-01
               5.5000000e-01     1.0000000e-01     3.3333330e-02
               6.5000000e-01     0.0000000e+00     3.3333330e-02
               6.0000000e-01     0.0000000e+00     6.6666670e-02
               5.5000000e-01     5.0000000e-02     6.6666670e-02
[...]
         <PointData>
            <DataArray type="Int32" Name="node-id" NumberOfComponents="1" format="ascii">
               1  2  3  4  5  6  7  8  9  10  11  12  13  14  15  16  17  18  19  20  21  22  23  24  25  26  27  28  29  30  31  32  33  34  35  36  37  38  39  40  41  42  43  44  45  46  47  48  49  50  51  52  53  54  55  56  57  58  59  60  61  62  63  64  65  66  67  68  69  70  71  72  73  74  75  76  77  78  79  80  81  82  83  84  85  86  87  88  89  90  91  92  93  94  95  96  97  98  99  100  101  102  103  104  105  106  107  108  109  110  111  112  113  114  115  116  117  118  119  120  121  122  123  124  125  126  127  128  129  130  131  132  133  134  135  136  137  138  139  140  141  142  143  144  145  146  147  148  149  150  151  152  153  154  155  156  157  158  159  160  161  162  163  164  165  166  167  168  169  170  171  172  173  174  175  176  177  178  179  180  181  182  183  184  185  186  187  188  189  190  191  192  193  194  195  196  197  198  199  200  201  202  203  204  205  206  207  208  209  210  211  212  213  214  215  216  217  218  219  220  221  222  223  224  225  226  227  228  229  230  231  232  233  234  235  236  237  238  239  240  241  242  243  244  245  246  247  248  249  250  251  252  
            </DataArray>
            <DataArray type="Float64" Name="ux" NumberOfComponents="1" format="ascii">
               0.0000000e+00    0.0000000e+00    0.0000000e+00   -3.2739685e-04    0.0000000e+00    0.0000000e+00   -7.2700344e-04   -1.0868661e-04    0.0000000e+00   -3.0459181e-04    0.0000000e+00   -1.0784020e-03   -3.2739685e-04    0.0000000e+00   -7.3217123e-04   -2.4333784e-04    1.0868661e-04    0.0000000e+00   -9.9604316e-05   -1.3470998e-03    0.0000000e+00   -7.2700344e-04    3.2739685e-04    0.0000000e+00   -3.5917087e-04   -1.0907215e-03   -1.0868661e-04    2.4333784e-04    9.9604316e-05   -2.4465265e-04    0.0000000e+00   -1.5525758e-03   -1.0784020e-03    7.2700344e-04   -4.4713274e-04    3.5917087e-04   -2.4333784e-04    3.0459181e-04    1.0868661e-04   -1.3542201e-03   -3.6351025e-04    2.4465265e-04   -1.3470998e-03    3.2739685e-04   -1.7239189e-03    1.0784020e-03    7.3217123e-04    2.4333784e-04   -5.1499065e-04   -3.5917087e-04   -1.5563420e-03    4.4713274e-04   -4.5056536e-04    3.6351025e-04   -1.8694514e-03    7.2700344e-04   -1.5525758e-03    1.3470998e-03   -4.4713274e-04   -1.7261523e-03    1.0907215e-03    3.5917087e-04   -5.7241006e-04    5.1499065e-04   -5.1715679e-04    4.5056536e-04    1.5525758e-03   -1.7239189e-03   -2.0027556e-03    1.0784020e-03    5.7241006e-04    4.4713274e-04   -5.1499065e-04    1.3542201e-03   -1.8703793e-03   -6.2192732e-04    5.1715679e-04   -5.7363888e-04    1.7239189e-03   -1.8694514e-03   -2.1251414e-03    1.3470998e-03   -6.6633895e-04   -2.0032399e-03   -5.7241006e-04    1.5563420e-03    5.1499065e-04    6.2192732e-04    5.7363888e-04   -6.2254822e-04    1.8694514e-03   -2.2369069e-03    1.5525758e-03   -2.0027556e-03    5.7241006e-04    6.6633895e-04   -2.1256581e-03   -7.0715061e-04    1.7261523e-03   -6.2192732e-04    6.2254822e-04   -6.6665572e-04   -2.1251414e-03   -2.3380273e-03    2.0027556e-03    1.7239189e-03    6.2192732e-04   -6.6633895e-04   -2.2374243e-03    7.0715061e-04   -7.4440113e-04    1.8703793e-03   -7.0747122e-04    6.6665572e-04    2.1251414e-03   -2.2369069e-03    1.8694514e-03   -2.4285039e-03    6.6633895e-04   -7.7810884e-04    7.4440113e-04    2.0032399e-03   -7.0715061e-04   -2.3385452e-03   -7.4472872e-04    7.0747122e-04    2.2369069e-03   -2.5083360e-03   -2.3380273e-03    2.0027556e-03    2.1256581e-03    7.0715061e-04    7.7810884e-04   -8.0826756e-04   -2.4290213e-03   -7.4440113e-04   -7.7843491e-04    7.4472872e-04   -2.4285039e-03    2.3380273e-03    2.1251414e-03   -2.5775239e-03   -2.5088536e-03    7.4440113e-04    2.2374243e-03   -7.7810884e-04   -8.3487830e-04    8.0826756e-04    7.7843491e-04   -8.0859388e-04   -2.5083360e-03   -2.6360676e-03    2.2369069e-03    2.4285039e-03   -8.5794087e-04    7.7810884e-04   -2.5780415e-03   -8.0826756e-04    2.3385452e-03    8.3487830e-04    8.0859388e-04   -8.3520456e-04   -2.6839669e-03    2.5083360e-03   -2.5775239e-03    2.3380273e-03   -8.7745540e-04    2.4290213e-03    8.5794087e-04   -2.6365849e-03   -8.3487830e-04    8.0826756e-04   -8.5826719e-04    8.3520456e-04   -2.6360676e-03    2.5775239e-03   -2.7212219e-03    2.4285039e-03    2.5088536e-03    8.3487830e-04   -8.9342205e-04   -2.6844842e-03   -8.5794087e-04    8.7745540e-04    8.5826719e-04   -8.7778171e-04   -2.7478228e-03   -2.6839669e-03    2.5083360e-03    2.6360676e-03   -9.0583938e-04   -8.7745540e-04   -2.7217395e-03    2.5780415e-03    8.9342205e-04    8.5794087e-04    8.7778171e-04   -8.9374796e-04   -2.7638597e-03   -2.7212219e-03    2.6839669e-03    2.5775239e-03   -8.9342205e-04    8.7745540e-04   -9.1470854e-04   -2.7483590e-03    9.0583938e-04    2.6365849e-03    8.9374796e-04   -9.0616697e-04   -2.7693405e-03   -2.7478228e-03    2.6360676e-03    2.7212219e-03   -9.0583938e-04   -9.2006050e-04   -2.7642404e-03    9.1470854e-04    2.6844842e-03    8.9342205e-04   -9.1503997e-04    9.0616697e-04   -9.2189922e-04    2.7478228e-03   -2.7638597e-03   -2.7695475e-03    2.6839669e-03    9.2006050e-04    9.0583938e-04    2.7217395e-03   -9.1470854e-04    9.1503997e-04   -9.2032185e-04   -2.7693405e-03    2.7638597e-03    9.2189922e-04    2.7212219e-03   -9.2208863e-04    2.7483590e-03   -9.2006050e-04    9.1470854e-04    9.2032185e-04    2.7693405e-03   -9.2189922e-04    2.7478228e-03    9.2006050e-04    2.7642404e-03    9.2208863e-04    2.7695475e-03    9.2189922e-04    2.7638597e-03    2.7693405e-03
            </DataArray>
            <DataArray type="Float64" Name="fx" NumberOfComponents="1" format="ascii">
               3.2089484e+02    5.8750378e+02    2.7969000e+02   -4.8750543e-04    3.2089484e+02   -2.7969000e+02   -3.6568107e-04    4.1758179e-04    4.9179709e+02   -4.9853168e-04   -3.2089484e+02    8.4673367e-05   -4.8750543e-04    2.7969000e+02   -7.5933861e-04    3.2548382e-04   -4.1758179e-04   -4.9179709e+02    8.2553859e-04    1.0054898e-04   -2.7969000e+02   -3.6568107e-04    4.8750543e-04   -5.8750378e+02   -8.6515087e-05    8.5025771e-05    4.1758179e-04   -3.2548382e-04   -8.2553859e-04    8.2414562e-04   -3.2089484e+02    4.5296260e-06    8.4673367e-05    3.6568107e-04   -7.8023579e-05    8.6515087e-05    3.2548382e-04    4.9853168e-04   -4.1758179e-04    1.2147523e-04   -3.3829577e-04   -8.2414562e-04    1.0054898e-04    4.8750543e-04   -1.8639184e-07   -8.4673367e-05    7.5933861e-04   -3.2548382e-04   -4.0025361e-06   -8.6515087e-05    3.9503725e-06    7.8023579e-05   -2.0156713e-04    3.3829577e-04   -3.4622854e-08    3.6568107e-04    4.5296260e-06   -1.0054898e-04   -7.8023579e-05   -1.0762109e-06   -8.5025771e-05    8.6515087e-05    2.1467370e-07    4.0025361e-06   -1.7952412e-06    2.0156713e-04   -4.5296260e-06   -1.8639187e-07    1.9095836e-14   -8.4673367e-05   -2.1467365e-07    7.8023579e-05   -4.0025361e-06   -1.2147523e-04   -8.0422303e-08    9.4972821e-09    1.7952412e-06    9.9310250e-07    1.8639186e-07   -3.4622811e-08    1.4210855e-14   -1.0054898e-04   -1.2934098e-14   -1.6875390e-14    2.1467363e-07   -3.9503730e-06    4.0025361e-06   -9.4973700e-09   -9.9310250e-07    5.3702365e-08    3.4622857e-08    6.6613381e-15   -4.5296260e-06   -2.0872193e-14   -2.1467370e-07    7.1054274e-15    1.2723156e-13   -5.9507954e-14    1.0762109e-06    9.4974073e-09   -5.3702497e-08    9.7699626e-15    5.9952043e-15    2.3536728e-14    4.4630966e-14    1.8639193e-07   -9.4973540e-09   -1.5265567e-14    8.4376950e-15   -7.2164497e-15   -1.0785817e-13    8.0422438e-08    1.8041124e-14   -1.7874591e-14   -1.6209256e-14   -4.2410520e-14    3.4622840e-08    7.0055073e-14   -6.7723605e-14   -4.6018744e-14    1.3600232e-14    2.7089442e-14    3.4472425e-14    3.3306691e-14   -1.1757262e-13   -3.9857007e-14    7.3940853e-14    4.1411319e-14   -5.9285910e-14   -2.2204460e-16    4.8849813e-14    1.0347279e-13   -7.1054274e-14    7.5772721e-14    8.6597396e-15    5.9174887e-14    1.5981660e-13   -7.6827433e-14   -7.6605389e-15    2.9309888e-14   -1.7763568e-15   -9.8143715e-14    1.6475710e-13    1.4377388e-14    4.1078252e-14    9.9142916e-14   -1.1807222e-13    7.2164497e-15   -2.5357494e-13    2.1538327e-14    1.0502710e-13    9.7810648e-14   -3.2418512e-14    4.0634163e-14    2.0927704e-14   -1.2401191e-13   -1.0624834e-13   -8.9983576e-14   -1.0436096e-14   -1.5198953e-13    1.0536017e-13   -3.1830094e-13    1.2889689e-13    3.7858605e-14   -2.6312286e-14    6.9277917e-14   -2.5368596e-14   -7.1054274e-14    2.2615243e-13    1.2334578e-13   -1.8768320e-13    1.5448753e-13   -4.3853809e-14    7.3829831e-14   -5.0737192e-14   -2.2204460e-15    1.8585133e-13   -2.4868996e-14    2.1094237e-15    9.6145314e-14   -2.1971314e-13    1.3850032e-13    6.6613381e-15    1.2287393e-13    1.5698554e-13    2.9837244e-13   -5.9119376e-15    8.6042284e-15   -9.5590202e-14   -5.0515148e-14   -1.4077628e-13    5.2097215e-14    7.0776718e-14   -8.7707619e-14    5.5094818e-14   -2.0872193e-14   -1.5237811e-13    3.5527137e-15   -3.5207948e-14    9.8143715e-14    4.2466031e-14   -8.0269125e-14    5.8064664e-14    4.5602411e-14    7.5495166e-15    9.4813046e-14    1.8221535e-14   -7.6494366e-14   -1.1932122e-13    9.4896313e-14   -2.5725515e-14    9.5340402e-14   -5.4956040e-14   -2.9309888e-14    5.6649130e-14    9.2412189e-14    7.6133544e-14   -3.3181791e-14    1.7497115e-13    2.2812308e-13   -1.1071699e-13   -1.1340928e-13   -8.0616069e-14   -1.6298074e-13    1.2873036e-13   -1.6656208e-13   -6.5503158e-14    2.2440383e-14   -1.6148194e-13   -1.3383739e-13   -1.0014212e-13    1.4403756e-13   -3.9936110e-13   -6.8414024e-14    4.6643245e-14   -4.6046500e-14   -1.6620039e-13   -1.0542955e-13   -1.0158541e-13   -1.6081581e-13    4.9866361e-14    9.4511204e-14    3.3337048e-14    7.2039597e-14    4.0495385e-14    1.1699669e-13    1.0708101e-13    2.8010927e-13   -2.8411301e-14    4.8711035e-14   -1.9498292e-14   -1.1049842e-13
            </DataArray>
            <DataArray type="Float64" Name="uy" NumberOfComponents="1" format="ascii">
               0.0000000e+00    0.0000000e+00    0.0000000e+00   -1.4487375e-04    0.0000000e+00    0.0000000e+00   -1.5095086e-04   -3.4884688e-05    0.0000000e+00    1.2472246e-19    0.0000000e+00   -1.0568870e-04    1.4487375e-04    0.0000000e+00    2.3199294e-19   -3.7165213e-05    3.4884688e-05    0.0000000e+00    7.5847195e-21   -6.6056593e-05    0.0000000e+00    1.5095086e-04    1.4487375e-04    0.0000000e+00   -2.7562670e-05   -1.1350836e-19    3.4884688e-05    3.7165213e-05   -9.1671374e-20   -6.3496213e-20    0.0000000e+00   -4.4589819e-05    1.0568870e-04    1.5095086e-04   -1.8099685e-05    2.7562670e-05    3.7165213e-05   -1.7216800e-19   -3.4884688e-05   -4.6964322e-19   -4.5227682e-19   -2.9067551e-19    6.6056593e-05   -1.4487375e-04   -3.2030381e-05    1.0568870e-04   -4.9280510e-19   -3.7165213e-05   -1.3235329e-05    2.7562670e-05   -9.3917053e-19    1.8099685e-05   -9.3756073e-19   -7.2793977e-19   -2.5482541e-05   -1.5095086e-04    4.4589819e-05    6.6056593e-05    1.8099685e-05   -1.6521779e-18   -8.6008787e-19   -2.7562670e-05   -1.0678009e-05    1.3235329e-05   -1.3861455e-18   -1.3269999e-18    4.4589819e-05    3.2030381e-05   -2.3630144e-05   -1.0568870e-04    1.0678009e-05   -1.8099685e-05    1.3235329e-05   -1.6955660e-18   -2.4896273e-18   -9.0981275e-06   -1.8906065e-18   -2.0746732e-18    3.2030381e-05    2.5482541e-05   -2.1663644e-05   -6.6056593e-05   -8.3246150e-06   -3.5985409e-18    1.0678009e-05   -2.3567761e-18   -1.3235329e-05    9.0981275e-06   -2.5371735e-18   -2.8830125e-18    2.5482541e-05   -1.9696947e-05   -4.4589819e-05    2.3630144e-05   -1.0678009e-05    8.3246150e-06   -4.0288874e-18   -7.6660572e-06   -3.1261877e-18    9.0981275e-06   -3.2199060e-18   -3.9837792e-18    2.1663644e-05   -1.7726097e-05    2.3630144e-05   -3.2030381e-05   -9.0981275e-06    8.3246150e-06   -4.4549946e-18    7.6660572e-06   -6.9629959e-06   -3.7424931e-18   -5.3079576e-18   -4.4041048e-18    2.1663644e-05    1.9696947e-05   -2.5482541e-05   -1.5756745e-05   -8.3246150e-06   -6.2675181e-06    6.9629959e-06   -3.9094177e-18    7.6660572e-06   -5.4666841e-18   -5.5706379e-18   -5.4745435e-18    1.9696947e-05   -1.3787125e-05    1.7726097e-05   -2.3630144e-05   -4.9754703e-18   -7.6660572e-06    6.2675181e-06   -5.5710025e-06   -7.0884870e-18    6.9629959e-06   -6.7678408e-18   -6.4735246e-18    1.5756745e-05    1.7726097e-05   -2.1663644e-05   -1.1817541e-05   -8.1196264e-18   -6.9629959e-06   -7.0671317e-18    6.2675181e-06   -4.8746497e-06    5.5710025e-06   -7.4127170e-18   -7.6391122e-18    1.3787125e-05   -9.8479186e-06   -1.9696947e-05    1.5756745e-05   -4.1782678e-06   -6.2675181e-06   -9.5236406e-18    5.5710025e-06   -8.1796706e-18    4.8746497e-06   -8.3960958e-18   -8.2626633e-18   -7.8784215e-06    1.3787125e-05    1.1817541e-05   -1.7726097e-05   -3.4818877e-06   -9.0438791e-18    4.1782678e-06   -1.1666234e-17    4.8746497e-06   -5.5710025e-06   -9.4722189e-18   -8.9242523e-18    9.8479186e-06    1.1817541e-05   -5.9096296e-06   -1.5756745e-05   -1.1062255e-17   -4.8746497e-06   -2.7854514e-06   -1.2079914e-17    4.1782678e-06    3.4818877e-06   -1.0288434e-17   -1.1975169e-17   -3.9350916e-06    7.8784215e-06   -1.3787125e-05    9.8479186e-06   -2.0900161e-06    3.4818877e-06   -1.3448446e-17   -1.1737321e-17    2.7854514e-06   -4.1782678e-06   -1.2794802e-17   -1.3408758e-17   -1.9095846e-06    5.9096296e-06    7.8784215e-06   -1.1817541e-05    2.7854514e-06   -3.4818877e-06   -1.3893737e-06   -1.5443864e-17    2.0900161e-06   -1.1981404e-17   -1.3724618e-17   -1.5225081e-17   -6.9585468e-07    3.9350916e-06   -9.8479186e-06    5.9096296e-06    2.0900161e-06   -6.7120106e-07   -1.7513673e-17    1.3893737e-06   -1.4490092e-17   -2.7854514e-06   -1.7766316e-17   -1.6761331e-17   -2.8614701e-07    3.9350916e-06    1.9095846e-06   -1.8715909e-17   -7.8784215e-06    6.7120106e-07   -2.0900161e-06   -1.5060643e-17    1.3893737e-06   -1.8497056e-17   -1.8460368e-17    6.9585468e-07    1.9095846e-06    2.8614701e-07   -5.9096296e-06   -1.9884633e-17   -1.6151193e-17    6.7120106e-07   -1.3893737e-06   -1.8734852e-17    6.9585468e-07    2.8614701e-07   -3.9350916e-06   -6.7120106e-07   -1.7742166e-17   -2.0702455e-17   -1.9758479e-17   -2.8614701e-07   -1.9095846e-06   -6.9585468e-07
            </DataArray>
            <DataArray type="Float64" Name="fy" NumberOfComponents="1" format="ascii">
               1.1023976e+02   -1.2956303e-13    8.9153526e+01    5.3577311e-04   -1.1023976e+02   -8.9153526e+01    1.2194042e-03   -5.9145218e-04   -1.6951718e-13    4.8964305e-14   -1.1023976e+02    6.5475720e-04   -5.3577311e-04   -8.9153526e+01    5.3072130e-14   -6.6752505e-04    5.9145218e-04    5.5760951e-14   -4.2695014e-14    6.1655555e-05    8.9153526e+01   -1.2194042e-03   -5.3577311e-04    2.3758773e-14   -5.3315959e-04    1.2672155e-14    5.9145218e-04    6.6752505e-04   -2.7484959e-14   -1.5716595e-14    1.1023976e+02    2.7536921e-06   -6.5475720e-04   -1.2194042e-03   -1.2209109e-04    5.3315959e-04    6.6752505e-04    1.4346163e-14   -5.9145218e-04   -6.0021432e-16   -5.2458038e-15    1.3357371e-16   -6.1655555e-05    5.3577311e-04   -2.2920742e-07   -6.5475720e-04    3.2553821e-14   -6.6752505e-04   -1.4067584e-06    5.3315959e-04   -2.6929847e-14    1.2209109e-04   -1.3253287e-15   -8.7707619e-15    4.1496897e-08    1.2194042e-03   -2.7536919e-06   -6.1655555e-05    1.2209109e-04   -1.7031515e-14    8.7464758e-15   -5.3315959e-04    1.0321705e-07    1.4067584e-06    4.6976312e-15    3.2890357e-14   -2.7536919e-06    2.2920747e-07   -1.3455383e-14    6.5475720e-04   -1.0321709e-07   -1.2209109e-04    1.4067584e-06    2.3675506e-14    8.2790545e-14    6.3922592e-09   -3.2057690e-15   -1.5133728e-14    2.2920742e-07   -4.1496840e-08   -3.9963692e-14    6.1655555e-05   -1.0218215e-13    6.6622055e-15   -1.0321710e-07   -1.3853502e-14   -1.4067584e-06   -6.3923342e-09   -6.4948047e-15   -1.5454998e-13   -4.1496804e-08    9.9717110e-14    2.7536919e-06    3.5644231e-14    1.0321715e-07    5.2631510e-15   -9.2131164e-15    2.3994695e-14   -4.4599741e-14   -6.3922436e-09   -1.8620522e-14    1.5849821e-13    8.5446407e-14    1.0948707e-14    4.7599511e-14   -2.2920740e-07    6.3922792e-09    4.5054238e-14   -1.6090081e-13   -1.0310502e-13    1.3562068e-14    3.9271537e-14    2.9864999e-14   -1.2574317e-13   -3.7210686e-14   -1.2771988e-13    4.1496815e-08    8.3286676e-14   -2.9663771e-14   -1.6640161e-13   -1.8841873e-13    1.3889064e-14   -9.8903524e-14    4.2267405e-14    1.7092404e-13    5.7561594e-14   -1.3973198e-14   -2.5085836e-14   -1.6057468e-13   -2.2442118e-14    7.1349177e-14    5.6257082e-14   -5.4133781e-14    8.4997981e-14   -1.0621365e-13   -1.0040579e-14    7.5229753e-14    1.3027426e-13   -6.0521900e-14    1.6793858e-14   -5.1465776e-14   -8.3255451e-14   -1.4869096e-13    5.4817262e-14    8.9948882e-14   -2.7110258e-14    1.2826545e-14   -2.0731160e-13    3.1430067e-13   -8.9147439e-15   -3.2050751e-14   -8.2199005e-14   -5.8054256e-14   -1.3567272e-14   -5.1812721e-14    9.9555780e-14    4.8796037e-14   -5.8494876e-14   -7.1278920e-14    6.0762159e-14    1.7125190e-13   -2.2487220e-14    5.3654997e-15   -6.8429637e-14   -3.6646901e-14   -6.6722669e-14    7.5998235e-14    1.3312268e-14   -2.6963674e-14   -8.3344789e-14    1.9278849e-13    1.6397647e-13    1.9723806e-15    6.6408684e-14    6.8964799e-14   -1.1288019e-13   -1.8421722e-13   -8.2930190e-14    9.4302170e-14   -6.1360639e-14    2.8635774e-13   -8.0332442e-14    2.3308612e-13    6.1841157e-14   -4.7864490e-14    7.7487496e-14   -2.6352098e-13    5.0941890e-14   -3.9915987e-14    3.0376743e-14    1.3215644e-13    8.0609130e-14   -2.5909830e-14    8.3616274e-14    8.9758929e-15   -7.0918098e-14   -3.7193859e-13   -8.8950548e-14    9.8331066e-14    1.2180534e-13    1.4990613e-13    5.6178152e-14   -4.5494858e-14    1.2385926e-15    5.1203746e-13   -1.4183967e-13    6.2521386e-14    4.8780424e-15   -4.6919500e-13    1.5437564e-13    1.3236710e-13   -1.3558078e-13    1.0961371e-13    8.4974562e-14   -3.4494109e-13    1.2558010e-13   -1.6490889e-13   -8.2813964e-14    9.8017948e-14    3.4038310e-14   -1.5067331e-13   -1.3409412e-13    4.7173637e-14    6.4304465e-14   -2.7720187e-13   -1.1322573e-13    8.2191198e-14    1.8414610e-13   -4.1055484e-15    1.0560129e-14   -3.8832305e-13   -4.1432569e-13   -3.1574938e-13   -6.6606375e-14   -2.2047468e-13   -3.2013888e-14    1.1433736e-13    1.1413006e-13    4.0555666e-13    4.3712863e-14    4.6063197e-13   -1.1741910e-14   -5.5113544e-14   -1.0846359e-15    1.4882973e-13    2.5181116e-13    1.9408433e-13   -1.5451830e-13    1.3563239e-13    2.3915332e-14    8.6097796e-14   -3.6163997e-14
            </DataArray>
            <DataArray type="Float64" Name="uz" NumberOfComponents="1" format="ascii">