<?xml version="1.0"?>
<VTKFile type="UnstructuredGrid" version="0.1" byte_order="LittleEndian">
   <UnstructuredGrid>
      <Piece NumberOfPoints="252" NumberOfCells="120">
         <Points>
            <DataArray type="Float64" NumberOfComponents="3" format="ascii">
               0.0000000e+00     0.0000000e+00     0.0000000e+00
               0.0000000e+00     5.0000000e-02     0.0000000e+00
               0.0000000e+00     0.0000000e+00     3.3333330e-02
               5.0000000e-02     0.0000000e+00     0.0000000e+00
               0.0000000e+00     1.0000000e-01     0.0000000e+00
               0.0000000e+00     0.0000000e+00     6.6666670e-02
               1.0000000e-01     0.0000000e+00     0.0000000e+00
               5.0000000e-02     0.0000000e+00     3.3333330e-02
               0.0000000e+00     5.0000000e-02     3.3333330e-02
               5.0000000e-02     5.0000000e-02     0.0000000e+00
               0.0000000e+00     0.0000000e+00     1.0000000e-01
               1.5000000e-01     0.0000000e+00     0.0000000e+00
               5.0000000e-02     1.0000000e-01     0.0000000e+00
               0.0000000e+00     1.0000000e-01     3.3333330e-02
               1.0000000e-01     5.0000000e-02     0.0000000e+00
               1.0000000e-01     0.0000000e+00     3.3333330e-02
               5.0000000e-02     0.0000000e+00     6.6666670e-02
               0.0000000e+00     5.0000000e-02     6.6666670e-02
               5.0000000e-02     5.0000000e-02     3.3333330e-02
               2.0000000e-01     0.0000000e+00     0.0000000e+00
               0.0000000e+00     1.0000000e-01     6.6666670e-02
               1.0000000e-01     1.0000000e-01     0.0000000e+00
               5.0000000e-02     0.0000000e+00     1.0000000e-01
               0.0000000e+00     5.0000000e-02     1.0000000e-01
               1.5000000e-01     0.0000000e+00     3.3333330e-02
               1.5000000e-01     5.0000000e-02     0.0000000e+00
               5.0000000e-02     1.0000000e-01     3.3333330e-02
               1.0000000e-01     0.0000000e+00     6.6666670e-02
               5.0000000e-02     5.0000000e-02     6.6666670e-02
               1.0000000e-01     5.0000000e-02     3.3333330e-02
               0.0000000e+00     1.0000000e-01     1.0000000e-01
               2.5000000e-01     0.0000000e+00     0.0000000e+00
               1.5000000e-01     1.0000000e-01     0.0000000e+00
               1.0000000e-01     0.0000000e+00     1.0000000e-01
               2.0000000e-01     0.0000000e+00     3.3333330e-02
               1.5000000e-01     0.0000000e+00     6.6666670e-02
               1.0000000e-01     1.0000000e-01     3.3333330e-02
               5.0000000e-02     5.0000000e-02     1.0000000e-01
               5.0000000e-02     1.0000000e-01     6.6666670e-02
               2.0000000e-01     5.0000000e-02     0.0000000e+00
               1.5000000e-01     5.0000000e-02     3.3333330e-02
               1.0000000e-01     5.0000000e-02     6.6666670e-02
               2.0000000e-01     1.0000000e-01     0.0000000e+00
               5.0000000e-02     1.0000000e-01     1.0000000e-01
               3.0000000e-01     0.0000000e+00     0.0000000e+00
               1.5000000e-01     0.0000000e+00     1.0000000e-01
               1.0000000e-01     5.0000000e-02     1.0000000e-01
               1.0000000e-01     1.0000000e-01     6.6666670e-02
               2.5000000e-01     0.0000000e+00     3.3333330e-02
               1.5000000e-01     1.0000000e-01     3.3333330e-02
               2.5000000e-01     5.0000000e-02     0.0000000e+00
               2.0000000e-01     0.0000000e+00     6.6666670e-02
               2.0000000e-01     5.0000000e-02     3.3333330e-02
               1.5000000e-01     5.0000000e-02     6.6666670e-02
               3.5000000e-01     0.0000000e+00     0.0000000e+00
               1.0000000e-01     1.0000000e-01     1.0000000e-01
               2.5000000e-01     1.0000000e-01     0.0000000e+00
               2.0000000e-01     0.0000000e+00     1.0000000e-01
               2.0000000e-01     1.0000000e-01     3.3333330e-02
               3.0000000e-01     5.0000000e-02     0.0000000e+00
               1.5000000e-01     5.0000000e-02     1.0000000e-01
               1.5000000e-01     1.0000000e-01     6.6666670e-02
               3.0000000e-01     0.0000000e+00     3.3333330e-02
               2.5000000e-01     0.0000000e+00     6.6666670e-02
               2.5000000e-01     5.0000000e-02     3.3333330e-02
               2.0000000e-01     5.0000000e-02     6.6666670e-02
               2.5000000e-01     0.0000000e+00     1.0000000e-01
               3.0000000e-01     1.0000000e-01     0.0000000e+00
               4.0000000e-01     0.0000000e+00     0.0000000e+00
               1.5000000e-01     1.0000000e-01     1.0000000e-01
               3.0000000e-01     0.0000000e+00     6.6666670e-02
               2.0000000e-01     1.0000000e-01     6.6666670e-02
               2.5000000e-01     1.0000000e-01     3.3333330e-02
               2.0000000e-01     5.0000000e-02     1.0000000e-01
               3.5000000e-01     5.0000000e-02     0.0000000e+00
               3.5000000e-01     0.0000000e+00     3.3333330e-02
               2.5000000e-01     5.0000000e-02     6.6666670e-02
               3.0000000e-01     5.0000000e-02     3.3333330e-02
               3.0000000e-01     0.0000000e+00     1.0000000e-01
               3.5000000e-01     1.0000000e-01     0.0000000e+00
               4.5000000e-01     0.0000000e+00     0.0000000e+00
               2.0000000e-01     1.0000000e-01     1.0000000e-01
               4.0000000e-01     0.0000000e+00     3.3333330e-02
               4.0000000e-01     5.0000000e-02     0.0000000e+00
               3.0000000e-01     1.0000000e-01     3.3333330e-02
               2.5000000e-01     5.0000000e-02     1.0000000e-01
               2.5000000e-01     1.0000000e-01     6.6666670e-02
               3.5000000e-01     0.0000000e+00     6.6666670e-02
               3.0000000e-01     5.0000000e-02     6.6666670e-02
               3.5000000e-01     5.0000000e-02     3.3333330e-02
               3.5000000e-01     0.0000000e+00     1.0000000e-01
               5.0000000e-01     0.0000000e+00     0.0000000e+00
               2.5000000e-01     1.0000000e-01     1.0000000e-01
               4.0000000e-01     1.0000000e-01     0.0000000e+00
               3.0000000e-01     1.0000000e-01     6.6666670e-02
               4.0000000e-01     0.0000000e+00     6.6666670e-02
               4.5000000e-01     5.0000000e-02     0.0000000e+00
               4.5000000e-01     0.0000000e+00     3.3333330e-02
               3.0000000e-01     5.0000000e-02     1.0000000e-01
               3.5000000e-01     1.0000000e-01     3.3333330e-02
               3.5000000e-01     5.0000000e-02     6.6666670e-02
               4.0000000e-01     5.0000000e-02     3.3333330e-02
               4.5000000e-01     1.0000000e-01     0.0000000e+00
               5.5000000e-01     0.0000000e+00     0.0000000e+00
               4.0000000e-01     0.0000000e+00     1.0000000e-01
               3.0000000e-01     1.0000000e-01     1.0000000e-01
               3.5000000e-01     1.0000000e-01     6.6666670e-02
               4.0000000e-01     1.0000000e-01     3.3333330e-02
               5.0000000e-01     5.0000000e-02     0.0000000e+00
               4.5000000e-01     0.0000000e+00     6.6666670e-02
               5.0000000e-01     0.0000000e+00     3.3333330e-02
               3.5000000e-01     5.0000000e-02     1.0000000e-01
               4.5000000e-01     5.0000000e-02     3.3333330e-02
               4.0000000e-01     5.0000000e-02     6.6666670e-02
               4.5000000e-01     0.0000000e+00     1.0000000e-01
               5.0000000e-01     1.0000000e-01     0.0000000e+00
               3.5000000e-01     1.0000000e-01     1.0000000e-01
               6.0000000e-01     0.0000000e+00     0.0000000e+00
               4.0000000e-01     1.0000000e-01     6.6666670e-02
               5.5000000e-01     0.0000000e+00     3.3333330e-02
               5.0000000e-01     0.0000000e+00     6.6666670e-02
               4.0000000e-01     5.0000000e-02     1.0000000e-01
               4.5000000e-01     1.0000000e-01     3.3333330e-02
               5.5000000e-01     5.0000000e-02     0.0000000e+00
               5.0000000e-01     5.0000000e-02     3.3333330e-02
               4.5000000e-01     5.0000000e-02     6.6666670e-02
               5.0000000e-01     0.0000000e+00     1.0000000e-01
               6.5000000e-01     0.0000000e+00     0.0000000e+00
               5.5000000e-01     1.0000000e-01     0.0000000e+00
               4.0000000e-01     1.0000000e-01     1.0000000e-01
               4.5000000e-01     5.0000000e-02     1.0000000e-01
               4.5000000e-01     1.0000000e-01     6.6666670e-02
               5.5000000e-01     0.0000000e+00     6.6666670e-02
               6.0000000e-01     0.0000000e+00     3.3333330e-02
               6.0000000e-01     5.0000000e-02     0.0000000e+00
               5.0000000e-01     1.0000000e-01     3.3333330e-02
               5.5000000e-01     5.0000000e-02     3.3333330e-02
               5.0000000e-01     5.0000000e-02     6.6666670e-02
               6.0000000e-01     1.0000000e-01     0.0000000e+00
               5.5000000e-01     0.0000000e+00     1.0000000e-01
               4.5000000e-01     1.0000000e-01     1.0000000e-01
               7.0000000e-01     0.0000000e+00     0.0000000e+00
               6.5000000e-01     5.0000000e-02     0.0000000e+00
               5.0000000e-01     1.0000000e-01     6.6666670e-02
               5.0000000e-01     5.0000000e-02     1.0000000e-01
               5.5000000e-01     1.0000000e-01     3.3333330e-02
               6.5000000e-01     0.0000000e+00     3.3333330e-02
               6.0000000e-01     0.0000000e+00     6.6666670e-02
               5.5000000e-01     5.0000000e-02     6.6666670e-02
[...]
         <PointData>
            <DataArray type="Int32" Name="node-id" NumberOfComponents="1" format="ascii">
               1  2  3  4  5  6  7  8  9  10  11  12  13  14  15  16  17  18  19  20  21  22  23  24  25  26  27  28  29  30  31  32  33  34  35  36  37  38  39  40  41  42  43  44  45  46  47  48  49  50  51  52  53  54  55  56  57  58  59  60  61  62  63  64  65  66  67  68  69  70  71  72  73  74  75  76  77  78  79  80  81  82  83  84  85  86  87  88  89  90  91  92  93  94  95  96  97  98  99  100  101  102  103  104  105  106  107  108  109  110  111  112  113  114  115  116  117  118  119  120  121  122  123  124  125  126  127  128  129  130  131  132  133  134  135  136  137  138  139  140  141  142  143  144  145  146  147  148  149  150  151  152  153  154  155  156  157  158  159  160  161  162  163  164  165  166  167  168  169  170  171  172  173  174  175  176  177  178  179  180  181  182  183  184  185  186  187  188  189  190  191  192  193  194  195  196  197  198  199  200  201  202  203  204  205  206  207  208  209  210  211  212  213  214  215  216  217  218  219  220  221  222  223  224  225  226  227  228  229  230  231  232  233  234  235  236  237  238  239  240  241  242  243  244  245  246  247  248  249  250  251  252  
            </DataArray>
            <DataArray type="Float64" Name="ux" NumberOfComponents="1" format="ascii">
               0.0000000e+00    0.0000000e+00    0.0000000e+00   -3.2739685e-04    0.0000000e+00    0.0000000e+00   -7.2700344e-04   -1.0868661e-04    0.0000000e+00   -3.0459181e-04    0.0000000e+00   -1.0784020e-03   -3.2739685e-04    0.0000000e+00   -7.3217123e-04   -2.4333784e-04    1.0868661e-04    0.0000000e+00   -9.9604316e-05   -1.3470998e-03    0.0000000e+00   -7.2700344e-04    3.2739685e-04    0.0000000e+00   -3.5917087e-04   -1.0907215e-03   -1.0868661e-04    2.4333784e-04    9.9604316e-05   -2.4465265e-04    0.0000000e+00   -1.5525758e-03   -1.0784020e-03    7.2700344e-04   -4.4713274e-04    3.5917087e-04   -2.4333784e-04    3.0459181e-04    1.0868661e-04   -1.3542201e-03   -3.6351025e-04    2.4465265e-04   -1.3470998e-03    3.2739685e-04   -1.7239189e-03    1.0784020e-03    7.3217123e-04    2.4333784e-04   -5.1499065e-04   -3.5917087e-04   -1.5563420e-03    4.4713274e-04   -4.5056536e-04    3.6351025e-04   -1.8694514e-03    7.2700344e-04   -1.5525758e-03    1.3470998e-03   -4.4713274e-04   -1.7261523e-03    1.0907215e-03    3.5917087e-04   -5.7241006e-04    5.1499065e-04   -5.1715679e-04    4.5056536e-04    1.5525758e-03   -1.7239189e-03   -2.0027556e-03    1.0784020e-03    5.7241006e-04    4.4713274e-04   -5.1499065e-04    1.3542201e-03   -1.8703793e-03   -6.2192732e-04    5.1715679e-04   -5.7363888e-04    1.7239189e-03   -1.8694514e-03   -2.1251414e-03    1.3470998e-03   -6.6633895e-04   -2.0032399e-03   -5.7241006e-04    1.5563420e-03    5.1499065e-04    6.2192732e-04    5.7363888e-04   -6.2254822e-04    1.8694514e-03   -2.2369069e-03    1.5525758e-03   -2.0027556e-03    5.7241006e-04    6.6633895e-04   -2.1256581e-03   -7.0715061e-04    1.7261523e-03   -6.2192732e-04    6.2254822e-04   -6.6665572e-04   -2.1251414e-03   -2.3380273e-03    2.0027556e-03    1.7239189e-03    6.2192732e-04   -6.6633895e-04   -2.2374243e-03    7.0715061e-04   -7.4440113e-04    1.8703793e-03   -7.0747122e-04    6.6665572e-04    2.1251414e-03   -2.2369069e-03    1.8694514e-03   -2.4285039e-03    6.6633895e-04   -7.7810884e-04    7.4440113e-04    2.0032399e-03   -7.0715061e-04   -2.3385452e-03   -7.4472872e-04    7.0747122e-04    2.2369069e-03   -2.5083360e-03   -2.3380273e-03    2.0027556e-03    2.1256581e-03    7.0715061e-04    7.7810884e-04   -8.0826756e-04   -2.4290213e-03   -7.4440113e-04   -7.7843491e-04    7.4472872e-04   -2.4285039e-03    2.3380273e-03    2.1251414e-03   -2.5775239e-03   -2.5088536e-03    7.4440113e-04    2.2374243e-03   -7.7810884e-04   -8.3487830e-04    8.0826756e-04    7.7843491e-04   -8.0859388e-04   -2.5083360e-03   -2.6360676e-03    2.2369069e-03    2.4285039e-03   -8.5794087e-04    7.7810884e-04   -2.5780415e-03   -8.0826756e-04    2.3385452e-03    8.3487830e-04    8.0859388e-04   -8.3520456e-04   -2.6839669e-03    2.5083360e-03   -2.5775239e-03    2.3380273e-03   -8.7745540e-04    2.4290213e-03    8.5794087e-04   -2.6365849e-03   -8.3487830e-04    8.0826756e-04   -8.5826719e-04    8.3520456e-04   -2.6360676e-03    2.5775239e-03   -2.7212219e-03    2.4285039e-03    2.5088536e-03    8.3487830e-04   -8.9342205e-04   -2.6844842e-03   -8.5794087e-04    8.7745540e-04    8.5826719e-04   -8.7778171e-04   -2.7478228e-03   -2.6839669e-03    2.5083360e-03    2.6360676e-03   -9.0583938e-04   -8.7745540e-04   -2.7217395e-03    2.5780415e-03    8.9342205e-04    8.5794087e-04    8.7778171e-04   -8.9374796e-04   -2.7638597e-03   -2.7212219e-03    2.6839669e-03    2.5775239e-03   -8.9342205e-04    8.7745540e-04   -9.1470854e-04   -2.7483590e-03    9.0583938e-04    2.6365849e-03    8.9374796e-04   -9.0616697e-04   -2.7693405e-03   -2.7478228e-03    2.6360676e-03    2.7212219e-03   -9.0583938e-04   -9.2006050e-04   -2.7642404e-03    9.1470854e-04    2.6844842e-03    8.9342205e-04   -9.1503997e-04    9.0616697e-04   -9.2189922e-04    2.7478228e-03   -2.7638597e-03   -2.7695475e-03    2.6839669e-03    9.2006050e-04    9.0583938e-04    2.7217395e-03   -9.1470854e-04    9.1503997e-04   -9.2032185e-04   -2.7693405e-03    2.7638597e-03    9.2189922e-04    2.7212219e-03   -9.2208863e-04    2.7483590e-03   -9.2006050e-04    9.1470854e-04    9.2032185e-04    2.7693405e-03   -9.2189922e-04    2.7478228e-03    9.2006050e-04    2.7642404e-03    9.2208863e-04    2.7695475e-03    9.2189922e-04    2.7638597e-03    2.7693405e-03
            </DataArray>
            <DataArray type="Float64" Name="fx" NumberOfComponents="1" format="ascii">
               3.2089484e+02    5.8750378e+02    2.7969000e+02   -4.8750543e-04    3.2089484e+02   -2.7969000e+02   -3.6568107e-04    4.1758179e-04    4.9179709e+02   -4.9853168e-04   -3.2089484e+02    8.4673367e-05   -4.8750543e-04    2.7969000e+02   -7.5933861e-04    3.2548382e-04   -4.1758179e-04   -4.9179709e+02    8.2553859e-04    1.0054898e-04   -2.7969000e+02   -3.6568107e-04    4.8750543e-04   -5.8750378e+02   -8.6515087e-05    8.5025771e-05    4.1758179e-04   -3.2548382e-04   -8.2553859e-04    8.2414562e-04   -3.2089484e+02    4.5296260e-06    8.4673367e-05    3.6568107e-04   -7.8023579e-05    8.6515087e-05    3.2548382e-04    4.9853168e-04   -4.1758179e-04    1.2147523e-04   -3.3829577e-04   -8.2414562e-04    1.0054898e-04    4.8750543e-04   -1.8639183e-07   -8.4673367e-05    7.5933861e-04   -3.2548382e-04   -4.0025361e-06   -8.6515087e-05    3.9503725e-06    7.8023579e-05   -2.0156713e-04    3.3829577e-04   -3.4622893e-08    3.6568107e-04    4.5296260e-06   -1.0054898e-04   -7.8023579e-05   -1.0762109e-06   -8.5025771e-05    8.6515087e-05    2.1467373e-07    4.0025361e-06   -1.7952414e-06    2.0156713e-04   -4.5296260e-06   -1.8639184e-07    1.3322676e-15   -8.4673367e-05   -2.1467368e-07    7.8023579e-05   -4.0025361e-06   -1.2147523e-04   -8.0422438e-08    9.4973585e-09    1.7952412e-06    9.9310250e-07    1.8639183e-07   -3.4622868e-08   -4.3964832e-14   -1.0054898e-04    2.4258373e-14   -6.6835426e-14    2.1467369e-07   -3.9503725e-06    4.0025361e-06   -9.4973700e-09   -9.9310250e-07    5.3702479e-08    3.4622889e-08    4.7295501e-14   -4.5296260e-06   -7.8381746e-14   -2.1467372e-07    8.7707619e-15    7.3940853e-14   -1.7541524e-14    1.0762109e-06    9.4974011e-09   -5.3702465e-08   -3.1696867e-14    1.1102230e-14   -9.1038288e-14    2.7755576e-14    1.8639184e-07   -9.4974029e-09    8.8262730e-15    1.0480505e-13   -3.5527137e-14   -8.3988372e-14    8.0422474e-08   -5.1070259e-15   -3.2196468e-15    4.4630966e-14    2.7755576e-14    3.4622872e-08   -1.0547119e-14    3.9190873e-14   -2.9976022e-14   -9.2703623e-15   -2.7089442e-14    3.1696867e-14   -2.1138646e-13   -2.2204460e-16   -6.6280315e-14    1.1102230e-15   -4.4408921e-15   -1.1191048e-13    1.1324275e-14    5.1736393e-14   -1.5876189e-14   -6.1228800e-14    1.7363888e-13    3.1197267e-14    3.0808689e-14    4.9238391e-14    3.7692072e-14   -5.2735594e-14    1.0214052e-14   -6.6613381e-16   -6.9277917e-14   -8.8484775e-14    4.4519943e-14   -1.8873791e-14    3.2585046e-14   -8.4932061e-14    2.7478020e-14    3.8191672e-14    2.4324986e-13   -6.2172489e-15    2.5535130e-15   -3.0864200e-14    8.9928065e-14    8.0380147e-14    3.4583447e-14    7.9936058e-14   -1.6264767e-14   -6.3948846e-14    2.3092639e-14    4.8572257e-14   -1.3355983e-13   -1.1934898e-14   -4.1300297e-14   -2.8976821e-14   -3.5527137e-15   -7.9852791e-14    1.1435297e-13    3.7914116e-14    1.2878587e-13   -1.7319479e-14   -4.0023540e-14   -1.0302870e-13    8.0435658e-14    1.2545520e-13   -2.9642955e-14   -5.4067861e-14    7.0277117e-14   -1.5254464e-13    4.1078252e-14    8.2323037e-14   -1.7041923e-14    9.3924868e-14    7.2164497e-16   -5.7842620e-14    9.9975583e-14   -7.3552275e-15   -7.5106588e-14   -5.8508753e-14   -4.8294702e-14   -1.4585555e-13   -8.2933660e-14   -6.6668893e-14   -4.2743586e-14   -6.5808470e-14   -6.0174088e-14    1.8027246e-13   -1.2531642e-13    8.4557361e-14   -5.6898930e-14    7.9658502e-14   -1.2911894e-13   -1.5923374e-13    7.1331829e-14    7.4273920e-14    9.6728181e-14    1.9523272e-13    1.3222756e-13   -5.1986193e-14   -3.0572767e-13    2.2769113e-14    1.1410317e-13    1.9950708e-13    2.2037927e-14   -6.9055872e-14    9.4202424e-14    3.4729164e-13    1.2087553e-14   -4.1522341e-14   -9.7283293e-14   -1.5479285e-13    4.5075055e-14   -1.3740398e-13   -7.3135942e-14    1.7216784e-13   -1.1255580e-13   -5.7787108e-14   -1.0014906e-13   -1.6056600e-14    1.1751711e-13   -1.7041923e-13   -1.1272233e-14    1.2573276e-14   -6.0012759e-14    8.4654506e-15   -8.1351592e-14    8.7430063e-14   -1.0172418e-14   -2.5285329e-14    7.3011042e-14   -1.1911652e-13    1.4764578e-13    3.6817771e-14    1.8676727e-13    1.2162493e-13    3.6658176e-14   -2.4012736e-13    1.0669243e-13   -2.5439720e-14    1.6403545e-14   -3.1530334e-14   -5.3757346e-14
            </DataArray>
            <DataArray type="Float64" Name="uy" NumberOfComponents="1" format="ascii">
               0.0000000e+00    0.0000000e+00    0.0000000e+00   -1.4487375e-04    0.0000000e+00    0.0000000e+00   -1.5095086e-04   -3.4884688e-05    0.0000000e+00    1.5105866e-19    0.0000000e+00   -1.0568870e-04    1.4487375e-04    0.0000000e+00    3.8692389e-19   -3.7165213e-05    3.4884688e-05    0.0000000e+00    3.1883182e-20   -6.6056593e-05    0.0000000e+00    1.5095086e-04    1.4487375e-04    0.0000000e+00   -2.7562670e-05    2.1081339e-19    3.4884688e-05    3.7165213e-05   -7.7625789e-20    7.3897763e-20    0.0000000e+00   -4.4589819e-05    1.0568870e-04    1.5095086e-04   -1.8099685e-05    2.7562670e-05    3.7165213e-05   -1.9041300e-19   -3.4884688e-05    1.2201418e-19   -1.3428498e-19   -1.8754028e-19    6.6056593e-05   -1.4487375e-04   -3.2030381e-05    1.0568870e-04   -4.2299494e-19   -3.7165213e-05   -1.3235329e-05    2.7562670e-05   -1.0674989e-19    1.8099685e-05   -3.7868137e-19   -4.4313839e-19   -2.5482541e-05   -1.5095086e-04    4.4589819e-05    6.6056593e-05    1.8099685e-05   -5.5023051e-19   -6.6761504e-19   -2.7562670e-05   -1.0678009e-05    1.3235329e-05   -6.2090922e-19   -8.4224383e-19    4.4589819e-05    3.2030381e-05   -2.3630144e-05   -1.0568870e-04    1.0678009e-05   -1.8099685e-05    1.3235329e-05   -1.2908897e-18   -1.0990153e-18   -9.0981275e-06   -1.1909919e-18   -1.0524604e-18    3.2030381e-05    2.5482541e-05   -2.1663644e-05   -6.6056593e-05   -8.3246150e-06   -1.8598178e-18    1.0678009e-05   -1.7195068e-18   -1.3235329e-05    9.0981275e-06   -1.5963696e-18   -1.6057915e-18    2.5482541e-05   -1.9696947e-05   -4.4589819e-05    2.3630144e-05   -1.0678009e-05    8.3246150e-06   -1.9465731e-18   -7.6660572e-06   -2.2059300e-18    9.0981275e-06   -1.9982903e-18   -2.3998391e-18    2.1663644e-05   -1.7726097e-05    2.3630144e-05   -3.2030381e-05   -9.0981275e-06    8.3246150e-06   -1.9573573e-18    7.6660572e-06   -6.9629959e-06   -2.5059410e-18   -3.3762313e-18   -2.8613584e-18    2.1663644e-05    1.9696947e-05   -2.5482541e-05   -1.5756745e-05   -8.3246150e-06   -6.2675181e-06    6.9629959e-06   -2.4478613e-18    7.6660572e-06   -2.7101586e-18   -3.2415074e-18   -3.6142304e-18    1.9696947e-05   -1.3787125e-05    1.7726097e-05   -2.3630144e-05   -3.1535310e-18   -7.6660572e-06    6.2675181e-06   -5.5710025e-06   -3.8900766e-18    6.9629959e-06   -4.1338909e-18   -4.3032975e-18    1.5756745e-05    1.7726097e-05   -2.1663644e-05   -1.1817541e-05   -4.3961936e-18   -6.9629959e-06   -4.9878743e-18    6.2675181e-06   -4.8746497e-06    5.5710025e-06   -4.7591229e-18   -4.5580940e-18    1.3787125e-05   -9.8479186e-06   -1.9696947e-05    1.5756745e-05   -4.1782678e-06   -6.2675181e-06   -5.4264558e-18    5.5710025e-06   -5.8965847e-18    4.8746497e-06   -5.5782591e-18   -4.8709506e-18   -7.8784215e-06    1.3787125e-05    1.1817541e-05   -1.7726097e-05   -3.4818877e-06   -6.3219528e-18    4.1782678e-06   -7.3280088e-18    4.8746497e-06   -5.5710025e-06   -5.7814168e-18   -5.6842069e-18    9.8479186e-06    1.1817541e-05   -5.9096296e-06   -1.5756745e-05   -8.1573690e-18   -4.8746497e-06   -2.7854514e-06   -7.6735850e-18    4.1782678e-06    3.4818877e-06   -6.7670852e-18   -8.0649820e-18   -3.9350916e-06    7.8784215e-06   -1.3787125e-05    9.8479186e-06   -2.0900161e-06    3.4818877e-06   -8.8782859e-18   -8.2618039e-18    2.7854514e-06   -4.1782678e-06   -8.8559776e-18   -9.1087863e-18   -1.9095846e-06    5.9096296e-06    7.8784215e-06   -1.1817541e-05    2.7854514e-06   -3.4818877e-06   -1.3893737e-06   -1.0484446e-17    2.0900161e-06   -8.2681409e-18   -9.3608854e-18   -1.0611763e-17   -6.9585468e-07    3.9350916e-06   -9.8479186e-06    5.9096296e-06    2.0900161e-06   -6.7120106e-07   -1.2605505e-17    1.3893737e-06   -1.0519006e-17   -2.7854514e-06   -1.2662251e-17   -1.1965956e-17   -2.8614701e-07    3.9350916e-06    1.9095846e-06   -1.3295027e-17   -7.8784215e-06    6.7120106e-07   -2.0900161e-06   -1.0753739e-17    1.3893737e-06   -1.3599721e-17   -1.3037881e-17    6.9585468e-07    1.9095846e-06    2.8614701e-07   -5.9096296e-06   -1.4270062e-17   -1.1183512e-17    6.7120106e-07   -1.3893737e-06   -1.3311427e-17    6.9585468e-07    2.8614701e-07   -3.9350916e-06   -6.7120106e-07   -1.2969801e-17   -1.5173042e-17   -1.4503403e-17   -2.8614701e-07   -1.9095846e-06   -6.9585468e-07
            </DataArray>
            <DataArray type="Float64" Name="fy" NumberOfComponents="1" format="ascii">
               1.1023976e+02   -1.6786572e-13    8.9153526e+01    5.3577311e-04   -1.1023976e+02   -8.9153526e+01    1.2194042e-03   -5.9145218e-04   -1.6940616e-13    5.7103627e-14   -1.1023976e+02    6.5475720e-04   -5.3577311e-04   -8.9153526e+01    1.1931428e-13   -6.6752505e-04    5.9145218e-04    1.4938051e-13   -7.5196793e-14    6.1655555e-05    8.9153526e+01   -1.2194042e-03   -5.3577311e-04    1.6453505e-13   -5.3315959e-04    5.5984731e-14    5.9145218e-04    6.6752505e-04   -8.1212814e-14    6.1339822e-15    1.1023976e+02    2.7536919e-06   -6.5475720e-04   -1.2194042e-03   -1.2209109e-04    5.3315959e-04    6.6752505e-04    2.3651220e-14   -5.9145218e-04    4.2552767e-14    1.0214052e-14   -2.4723279e-14   -6.1655555e-05    5.3577311e-04   -2.2920737e-07   -6.5475720e-04    8.3110602e-14   -6.6752505e-04   -1.4067584e-06    5.3315959e-04    2.0077690e-14    1.2209109e-04   -3.2890357e-15    2.4771851e-14    4.1496875e-08    1.2194042e-03   -2.7536919e-06   -6.1655555e-05    1.2209109e-04   -1.2878587e-14    7.6168238e-14   -5.3315959e-04    1.0321702e-07    1.4067584e-06    2.0428104e-14   -1.3392065e-14   -2.7536919e-06    2.2920742e-07   -1.8800933e-14    6.5475720e-04   -1.0321712e-07   -1.2209109e-04    1.4067584e-06    5.5958710e-14   -3.6842925e-14    6.3921828e-09    4.1605608e-14   -4.9731053e-14    2.2920743e-07   -4.1496886e-08    1.7330755e-14    6.1655555e-05   -4.4523413e-14   -2.0490554e-14   -1.0321707e-07    7.8548279e-15   -1.4067584e-06   -6.3922343e-09    4.3888504e-14    6.1374517e-15   -4.1496790e-08   -1.2117911e-14    2.7536919e-06    1.5536617e-14    1.0321714e-07   -5.7166077e-14    4.3215431e-14    1.4849233e-15   -7.7021722e-16   -6.3922596e-09   -1.9203389e-14    5.6309124e-15    1.6459056e-14    1.4450247e-15    1.0810320e-13   -2.2920743e-07    6.3922783e-09    9.6901653e-15    5.4194496e-14   -9.0500524e-14    3.3299752e-14    5.8150533e-14   -8.8620083e-14   -1.2426171e-13    3.0297813e-14   -4.6757737e-14    4.1496829e-08    3.0189393e-14    3.1991770e-14   -6.9950989e-14   -5.0466575e-14    1.2519933e-13    9.2665459e-14    3.2257183e-15   -1.0003456e-13   -1.1515094e-14    4.6820187e-15    5.8795850e-14   -7.2471543e-14   -3.2447569e-14    4.8027554e-14    1.6011498e-14    9.1645441e-15   -4.4037690e-14   -2.2819420e-14    7.0773248e-14    2.4485795e-13    1.1272927e-13    6.8006364e-14   -9.2086061e-14   -7.2626800e-14   -3.5397033e-14   -6.5615915e-15    3.6467357e-14   -5.6364635e-14    1.2734605e-13    8.7707619e-14    3.4810696e-14    2.5777991e-14   -4.1300297e-14    5.3112896e-14    1.1447614e-13   -6.5770306e-14   -4.6725644e-14   -1.0447546e-13   -1.1200069e-13    6.5650610e-15   -3.0440928e-14   -3.7795288e-14    4.6148849e-14    2.1573021e-13   -1.7952133e-13    3.4018795e-14    9.3018475e-14   -4.0915188e-14   -3.7574110e-15   -8.1249243e-14   -6.2722397e-14    8.2177321e-14    6.4662685e-14   -4.5689147e-14   -2.8997638e-14    7.2518380e-14   -7.4537598e-14   -2.3947424e-13    3.3768995e-14   -1.6015574e-13   -5.8284107e-14   -1.1050535e-13    6.6861447e-14   -4.0769471e-14    2.4411115e-13    7.4497700e-14    1.5767943e-13   -2.1403886e-13    8.0932656e-14   -7.5607923e-14   -2.3789130e-14   -5.5745339e-15   -7.2260774e-14   -1.6604947e-13    1.3351299e-13   -5.9671885e-14   -2.5688653e-14    4.2883232e-14   -4.4043762e-14    5.0652191e-14   -2.5936371e-13    2.8974913e-13    2.4901088e-14    1.0552323e-14    1.7700251e-13   -7.9462478e-14    2.5070224e-14   -2.7783765e-13   -1.1801844e-13    1.4285513e-13   -2.2841624e-13   -9.0205621e-17   -9.0495320e-14    1.3754524e-13    8.3431526e-15    1.8563276e-14    2.0751109e-13    2.6373001e-13   -1.5879312e-13    1.3588956e-13   -5.6870741e-15    2.4745830e-14   -1.7435272e-14   -2.6007842e-15   -2.2284995e-13   -4.4839132e-14    3.3022370e-13    1.4187609e-13    4.0278002e-14    6.9199854e-14    1.9042060e-14    9.9776307e-14    7.1592905e-14    3.4240926e-13   -3.8849978e-13   -6.9815096e-13    3.1315066e-14    1.6113846e-13   -6.7967767e-14   -1.2697048e-13   -8.7393634e-14    7.8218682e-14    7.8504044e-14    1.7140803e-13   -1.4757379e-13    2.7110726e-14   -5.9132386e-15   -7.5368531e-14    3.9815070e-13   -9.4570185e-14    6.5428560e-15    3.0308330e-14    3.3797184e-14   -9.3402716e-14   -1.0863142e-13
            </DataArray>
            <DataArray type="Float64" Name="uz" NumberOfComponents="1" format="ascii">