<?xml version="1.0"?>
<VTKFile type="UnstructuredGrid" version="0.1" byte_order="LittleEndian">
   <UnstructuredGrid>
      <Piece NumberOfPoints="252" NumberOfCells="120">
         <Points>
            <DataArray type="Float64" NumberOfComponents="3" format="ascii">
               0.0000000e+00     0.0000000e+00     0.0000000e+00
               0.0000000e+00     5.0000000e-02     0.0000000e+00
               0.0000000e+00     0.0000000e+00     3.3333330e-02
               5.0000000e-02     0.0000000e+00     0.0000000e+00
               0.0000000e+00     1.0000000e-01     0.0000000e+00
               0.0000000e+00     0.0000000e+00     6.6666670e-02
               1.0000000e-01     0.0000000e+00     0.0000000e+00
               5.0000000e-02     0.0000000e+00     3.3333330e-02
               0.0000000e+00     5.0000000e-02     3.3333330e-02
               5.0000000e-02     5.0000000e-02     0.0000000e+00
               0.0000000e+00     0.0000000e+00     1.0000000e-01
               1.5000000e-01     0.0000000e+00     0.0000000e+00
               5.0000000e-02     1.0000000e-01     0.0000000e+00
               0.0000000e+00     1.0000000e-01     3.3333330e-02
               1.0000000e-01     5.0000000e-02     0.0000000e+00
               1.0000000e-01     0.0000000e+00     3.3333330e-02
               5.0000000e-02     0.0000000e+00     6.6666670e-02
               0.0000000e+00     5.0000000e-02     6.6666670e-02
               5.0000000e-02     5.0000000e-02     3.3333330e-02
               2.0000000e-01     0.0000000e+00     0.0000000e+00
               0.0000000e+00     1.0000000e-01     6.6666670e-02
               1.0000000e-01     1.0000000e-01     0.0000000e+00
               5.0000000e-02     0.0000000e+00     1.0000000e-01
               0.0000000e+00     5.0000000e-02     1.0000000e-01
               1.5000000e-01     0.0000000e+00     3.3333330e-02
               1.5000000e-01     5.0000000e-02     0.0000000e+00
               5.0000000e-02     1.0000000e-01     3.3333330e-02
               1.0000000e-01     0.0000000e+00     6.6666670e-02
               5.0000000e-02     5.0000000e-02     6.6666670e-02
               1.0000000e-01     5.0000000e-02     3.3333330e-02
               0.0000000e+00     1.0000000e-01     1.0000000e-01
               2.5000000e-01     0.0000000e+00     0.0000000e+00
               1.5000000e-01     1.0000000e-01     0.0000000e+00
               1.0000000e-01     0.0000000e+00     1.0000000e-01
               2.0000000e-01     0.0000000e+00     3.3333330e-02
               1.5000000e-01     0.0000000e+00     6.6666670e-02
               1.0000000e-01     1.0000000e-01     3.3333330e-02
               5.0000000e-02     5.0000000e-02     1.0000000e-01
               5.0000000e-02     1.0000000e-01     6.6666670e-02
               2.0000000e-01     5.0000000e-02     0.0000000e+00
               1.5000000e-01     5.0000000e-02     3.3333330e-02
               1.0000000e-01     5.0000000e-02     6.6666670e-02
               2.0000000e-01     1.0000000e-01     0.0000000e+00
               5.0000000e-02     1.0000000e-01     1.0000000e-01
               3.0000000e-01     0.0000000e+00     0.0000000e+00
               1.5000000e-01     0.0000000e+00     1.0000000e-01
               1.0000000e-01     5.0000000e-02     1.0000000e-01
               1.0000000e-01     1.0000000e-01     6.6666670e-02
               2.5000000e-01     0.0000000e+00     3.3333330e-02
               1.5000000e-01     1.0000000e-01     3.3333330e-02
               2.5000000e-01     5.0000000e-02     0.0000000e+00
               2.0000000e-01     0.0000000e+00     6.6666670e-02
               2.0000000e-01     5.0000000e-02     3.3333330e-02
               1.5000000e-01     5.0000000e-02     6.6666670e-02
               3.5000000e-01     0.0000000e+00     0.0000000e+00
               1.0000000e-01     1.0000000e-01     1.0000000e-01
               2.5000000e-01     1.0000000e-01     0.0000000e+00
               2.0000000e-01     0.0000000e+00     1.0000000e-01
               2.0000000e-01     1.0000000e-01     3.3333330e-02
               3.0000000e-01     5.0000000e-02     0.0000000e+00
               1.5000000e-01     5.0000000e-02     1.0000000e-01
               1.5000000e-01     1.0000000e-01     6.6666670e-02
               3.0000000e-01     0.0000000e+00     3.3333330e-02
               2.5000000e-01     0.0000000e+00     6.6666670e-02
               2.5000000e-01     5.0000000e-02     3.3333330e-02
               2.0000000e-01     5.0000000e-02     6.6666670e-02
               2.5000000e-01     0.0000000e+00     1.0000000e-01
               3.0000000e-01     1.0000000e-01     0.0000000e+00
               4.0000000e-01     0.0000000e+00     0.0000000e+00
               1.5000000e-01     1.0000000e-01     1.0000000e-01
               3.0000000e-01     0.0000000e+00     6.6666670e-02
               2.0000000e-01     1.0000000e-01     6.6666670e-02
               2.5000000e-01     1.0000000e-01     3.3333330e-02
               2.0000000e-01     5.0000000e-02     1.0000000e-01
               3.5000000e-01     5.0000000e-02     0.0000000e+00
               3.5000000e-01     0.0000000e+00     3.3333330e-02
               2.5000000e-01     5.0000000e-02     6.6666670e-02
               3.0000000e-01     5.0000000e-02     3.3333330e-02
               3.0000000e-01     0.0000000e+00     1.0000000e-01
               3.5000000e-01     1.0000000e-01     0.0000000e+00
               4.5000000e-01     0.0000000e+00     0.0000000e+00
               2.0000000e-01     1.0000000e-01     1.0000000e-01
               4.0000000e-01     0.0000000e+00     3.3333330e-02
               4.0000000e-01     5.0000000e-02     0.0000000e+00
               3.0000000e-01     1.0000000e-01     3.3333330e-02
               2.5000000e-01     5.0000000e-02     1.0000000e-01
               2.5000000e-01     1.0000000e-01     6.6666670e-02
               3.5000000e-01     0.0000000e+00     6.6666670e-02
               3.0000000e-01     5.0000000e-02     6.6666670e-02
               3.5000000e-01     5.0000000e-02     3.3333330e-02
               3.5000000e-01     0.0000000e+00     1.0000000e-01
               5.0000000e-01     0.0000000e+00     0.0000000e+00
               2.5000000e-01     1.0000000e-01     1.0000000e-01
               4.0000000e-01     1.0000000e-01     0.0000000e+00
               3.0000000e-01     1.0000000e-01     6.6666670e-02
               4.0000000e-01     0.0000000e+00     6.6666670e-02
               4.5000000e-01     5.0000000e-02     0.0000000e+00
               4.5000000e-01     0.0000000e+00     3.3333330e-02
               3.0000000e-01     5.0000000e-02     1.0000000e-01
               3.5000000e-01     1.0000000e-01     3.3333330e-02
               3.5000000e-01     5.0000000e-02     6.6666670e-02
               4.0000000e-01     5.0000000e-02     3.3333330e-02
               4.5000000e-01     1.0000000e-01     0.0000000e+00
               5.5000000e-01     0.0000000e+00     0.0000000e+00
               4.0000000e-01     0.0000000e+00     1.0000000e-01
               3.0000000e-01     1.0000000e-01     1.0000000e-01
               3.5000000e-01     1.0000000e-01     6.6666670e-02
               4.0000000e-01     1.0000000e-01     3.3333330e-02
               5.0000000e-01     5.0000000e-02     0.0000000e+00
               4.5000000e-01     0.0000000e+00     6.6666670e-02
               5.0000000e-01     0.0000000e+00     3.3333330e-02
               3.5000000e-01     5.0000000e-02     1.0000000e-01
               4.5000000e-01     5.0000000e-02     3.3333330e-02
               4.0000000e-01     5.0000000e-02     6.6666670e-02
               4.5000000e-01     0.0000000e+00     1.0000000e-01
               5.0000000e-01     1.0000000e-01     0.0000000e+00
               3.5000000e-01     1.0000000e-01     1.0000000e-01
               6.0000000e-01     0.0000000e+00     0.0000000e+00
               4.0000000e-01     1.0000000e-01     6.6666670e-02
               5.5000000e-01     0.0000000e+00     3.3333330e-02
               5.0000000e-01     0.0000000e+00     6.6666670e-02
               4.0000000e-01     5.0000000e-02     1.0000000e-01
               4.5000000e-01     1.0000000e-01     3.3333330e-02
               5.5000000e-01     5.0000000e-02     0.0000000e+00
               5.0000000e-01     5.0000000e-02     3.3333330e-02
               4.5000000e-01     5.0000000e-02     6.6666670e-02
               5.0000000e-01     0.0000000e+00     1.0000000e-01
               6.5000000e-01     0.0000000e+00     0.0000000e+00
               5.5000000e-01     1.0000000e-01     0.0000000e+00
               4.0000000e-01     1.0000000e-01     1.0000000e-01
               4.5000000e-01     5.0000000e-02     1.0000000e-01
               4.5000000e-01     1.0000000e-01     6.6666670e-02
               5.5000000e-01     0.0000000e+00     6.6666670e-02
               6.0000000e-01     0.0000000e+00     3.3333330e-02
               6.0000000e-01     5.0000000e-02     0.0000000e+00
               5.0000000e-01     1.0000000e-01     3.3333330e-02
               5.5000000e-01     5.0000000e-02     3.3333330e-02
               5.0000000e-01     5.0000000e-02     6.6666670e-02
               6.0000000e-01     1.0000000e-01     0.0000000e+00
               5.5000000e-01     0.0000000e+00     1.0000000e-01
               4.5000000e-01     1.0000000e-01     1.0000000e-01
               7.0000000e-01     0.0000000e+00     0.0000000e+00
               6.5000000e-01     5.0000000e-02     0.0000000e+00
               5.0000000e-01     1.0000000e-01     6.6666670e-02
               5.0000000e-01     5.0000000e-02     1.0000000e-01
               5.5000000e-01     1.0000000e-01     3.3333330e-02
               6.5000000e-01     0.0000000e+00     3.3333330e-02
               6.0000000e-01     0.0000000e+00     6.6666670e-02
               5.5000000e-01     5.0000000e-02     6.6666670e-02
[...]
         <PointData>
            <DataArray type="Int32" Name="node-id" NumberOfComponents="1" format="ascii">
               1  2  3  4  5  6  7  8  9  10  11  12  13  14  15  16  17  18  19  20  21  22  23  24  25  26  27  28  29  30  31  32  33  34  35  36  37  38  39  40  41  42  43  44  45  46  47  48  49  50  51  52  53  54  55  56  57  58  59  60  61  62  63  64  65  66  67  68  69  70  71  72  73  74  75  76  77  78  79  80  81  82  83  84  85  86  87  88  89  90  91  92  93  94  95  96  97  98  99  100  101  102  103  104  105  106  107  108  109  110  111  112  113  114  115  116  117  118  119  120  121  122  123  124  125  126  127  128  129  130  131  132  133  134  135  136  137  138  139  140  141  142  143  144  145  146  147  148  149  150  151  152  153  154  155  156  157  158  159  160  161  162  163  164  165  166  167  168  169  170  171  172  173  174  175  176  177  178  179  180  181  182  183  184  185  186  187  188  189  190  191  192  193  194  195  196  197  198  199  200  201  202  203  204  205  206  207  208  209  210  211  212  213  214  215  216  217  218  219  220  221  222  223  224  225  226  227  228  229  230  231  232  233  234  235  236  237  238  239  240  241  242  243  244  245  246  247  248  249  250  251  252  
            </DataArray>
            <DataArray type="Float64" Name="ux" NumberOfComponents="1" format="ascii">
               0.0000000e+00    0.0000000e+00    0.0000000e+00   -3.2747013e-04    0.0000000e+00    0.0000000e+00   -7.2698563e-04   -1.0866635e-04    0.0000000e+00   -3.0459045e-04    0.0000000e+00   -1.0783595e-03   -3.2747013e-04    0.0000000e+00   -7.3212874e-04   -2.4333423e-04    1.0866635e-04    0.0000000e+00   -9.9575336e-05   -1.3470650e-03    0.0000000e+00   -7.2698563e-04    3.2747013e-04    0.0000000e+00   -3.5916385e-04   -1.0906584e-03   -1.0866635e-04    2.4333423e-04    9.9575336e-05   -2.4464302e-04    0.0000000e+00   -1.5525528e-03   -1.0783595e-03    7.2698563e-04   -4.4712372e-04    3.5916385e-04   -2.4333423e-04    3.0459045e-04    1.0866635e-04   -1.3541738e-03   -3.6350661e-04    2.4464302e-04   -1.3470650e-03    3.2747013e-04   -1.7239093e-03    1.0783595e-03    7.3212874e-04    2.4333423e-04   -5.1498396e-04   -3.5916385e-04   -1.5563212e-03    4.4712372e-04   -4.5055820e-04    3.6350661e-04   -1.8694481e-03    7.2698563e-04   -1.5525528e-03    1.3470650e-03   -4.4712372e-04   -1.7261436e-03    1.0906584e-03    3.5916385e-04   -5.7240628e-04    5.1498396e-04   -5.1715004e-04    4.5055820e-04    1.5525528e-03   -1.7239093e-03   -2.0027563e-03    1.0783595e-03    5.7240628e-04    4.4712372e-04   -5.1498396e-04    1.3541738e-03   -1.8703762e-03   -6.2192616e-04    5.1715004e-04   -5.7363574e-04    1.7239093e-03   -1.8694481e-03   -2.1251456e-03    1.3470650e-03   -6.6633913e-04   -2.0032406e-03   -5.7240628e-04    1.5563212e-03    5.1498396e-04    6.2192616e-04    5.7363574e-04   -6.2254723e-04    1.8694481e-03   -2.2369144e-03    1.5525528e-03   -2.0027563e-03    5.7240628e-04    6.6633913e-04   -2.1256623e-03   -7.0715195e-04    1.7261436e-03   -6.2192616e-04    6.2254723e-04   -6.6665589e-04   -2.1251456e-03   -2.3380376e-03    2.0027563e-03    1.7239093e-03    6.2192616e-04   -6.6633913e-04   -2.2374317e-03    7.0715195e-04   -7.4440351e-04    1.8703762e-03   -7.0747262e-04    6.6665589e-04    2.1251456e-03   -2.2369144e-03    1.8694481e-03   -2.4285167e-03    6.6633913e-04   -7.7811221e-04    7.4440351e-04    2.0032406e-03   -7.0715195e-04   -2.3385554e-03   -7.4473117e-04    7.0747262e-04    2.2369144e-03   -2.5083511e-03   -2.3380376e-03    2.0027563e-03    2.1256623e-03    7.0715195e-04    7.7811221e-04   -8.0827181e-04   -2.4290343e-03   -7.4440351e-04   -7.7843829e-04    7.4473117e-04   -2.4285167e-03    2.3380376e-03    2.1251456e-03   -2.5775412e-03   -2.5088687e-03    7.4440351e-04    2.2374317e-03   -7.7811221e-04   -8.3488331e-04    8.0827181e-04    7.7843829e-04   -8.0859812e-04   -2.5083511e-03   -2.6360862e-03    2.2369144e-03    2.4285167e-03   -8.5794658e-04    7.7811221e-04   -2.5780585e-03   -8.0827181e-04    2.3385554e-03    8.3488331e-04    8.0859812e-04   -8.3520956e-04   -2.6839869e-03    2.5083511e-03   -2.5775412e-03    2.3380376e-03   -8.7746163e-04    2.4290343e-03    8.5794658e-04   -2.6366038e-03   -8.3488331e-04    8.0827181e-04   -8.5827283e-04    8.3520956e-04   -2.6360862e-03    2.5775412e-03   -2.7212433e-03    2.4285167e-03    2.5088687e-03    8.3488331e-04   -8.9342875e-04   -2.6845043e-03   -8.5794658e-04    8.7746163e-04    8.5827283e-04   -8.7778794e-04   -2.7478449e-03   -2.6839869e-03    2.5083511e-03    2.6360862e-03   -9.0584642e-04   -8.7746163e-04   -2.7217607e-03    2.5780585e-03    8.9342875e-04    8.5794658e-04    8.7778794e-04   -8.9375471e-04   -2.7638820e-03   -2.7212433e-03    2.6839869e-03    2.5775412e-03   -8.9342875e-04    8.7746163e-04   -9.1471581e-04   -2.7483809e-03    9.0584642e-04    2.6366038e-03    8.9375471e-04   -9.0617401e-04   -2.7693631e-03   -2.7478449e-03    2.6360862e-03    2.7212433e-03   -9.0584642e-04   -9.2006795e-04   -2.7642630e-03    9.1471581e-04    2.6845043e-03    8.9342875e-04   -9.1504725e-04    9.0617401e-04   -9.2190673e-04    2.7478449e-03   -2.7638820e-03   -2.7695701e-03    2.6839869e-03    9.2006795e-04    9.0584642e-04    2.7217607e-03   -9.1471581e-04    9.1504725e-04   -9.2032930e-04   -2.7693631e-03    2.7638820e-03    9.2190673e-04    2.7212433e-03   -9.2209614e-04    2.7483809e-03   -9.2006795e-04    9.1471581e-04    9.2032930e-04    2.7693631e-03   -9.2190673e-04    2.7478449e-03    9.2006795e-04    2.7642630e-03    9.2209614e-04    2.7695701e-03    9.2190673e-04    2.7638820e-03    2.7693631e-03
            </DataArray>
            <DataArray type="Float64" Name="fx" NumberOfComponents="1" format="ascii">
               3.2096408e+02    5.8751428e+02    2.7964221e+02   -2.0228669e-03    3.2096408e+02   -2.7964221e+02   -1.3119911e-03    1.6315191e-03    4.9158081e+02   -1.7035843e-03   -3.2096408e+02    4.7527810e-04   -2.0228669e-03    2.7964221e+02   -2.9578398e-03    1.1934475e-03   -1.6315191e-03   -4.9158081e+02    2.8644968e-03    5.4680556e-04   -2.7964221e+02   -1.3119911e-03    2.0228669e-03   -5.8751428e+02   -2.4098580e-04    6.4484857e-04    1.6315191e-03   -1.1934475e-03   -2.8644968e-03    3.0389600e-03   -3.2096408e+02    7.9699865e-05    4.7527810e-04    1.3119911e-03   -2.8415080e-04    2.4098580e-04    1.1934475e-03    1.7035843e-03   -1.6315191e-03    5.8186398e-04   -2.0696246e-03   -3.0389600e-03    5.4680556e-04    2.0228669e-03    2.6130938e-06   -4.7527810e-04    2.9578398e-03   -1.1934475e-03   -4.6367131e-05   -2.4098580e-04    4.0628831e-05    2.8415080e-04   -1.3463844e-03    2.0696246e-03    5.1865609e-08    1.3119911e-03    7.9699865e-05   -5.4680556e-04   -2.8415080e-04   -9.6914910e-06   -6.4484857e-04    2.4098580e-04    9.5416647e-07    4.6367131e-05   -1.2199194e-04    1.3463844e-03   -7.9699865e-05    2.6130938e-06    3.6082248e-14   -4.7527810e-04   -9.5416647e-07    2.8415080e-04   -4.6367131e-05   -5.8186398e-04   -4.5409294e-08   -3.6705842e-08    1.2199194e-04    2.4444552e-07   -2.6130938e-06    5.1865584e-08   -5.9952043e-15   -5.4680556e-04    1.1657342e-15    3.8302694e-14    9.5416647e-07   -4.0628831e-05    4.6367131e-05    3.6705842e-08   -2.4444552e-07   -2.2351681e-08   -5.1865623e-08   -4.8738791e-14   -7.9699865e-05    5.9952043e-15   -9.5416647e-07   -3.5915715e-14   -6.4948047e-14   -2.7200464e-15    9.6914910e-06   -3.6705863e-08    2.2351676e-08    7.1109785e-14   -3.9301895e-14   -1.7652546e-14    2.6201263e-14   -2.6130938e-06    3.6705838e-08    2.8310687e-14   -4.1300297e-14   -1.7763568e-14   -4.8294702e-14    4.5409319e-08   -1.9817481e-14   -7.7604589e-14    2.4535929e-14   -2.6090241e-14   -5.1865566e-08   -2.2870594e-14    1.0491608e-14    1.0630385e-13    3.2862602e-14    2.5979219e-14    2.2093438e-14    1.1679546e-13   -1.3161694e-13    2.2537527e-14   -1.1879386e-14    2.0317081e-14    5.9507954e-14    2.2204460e-16    2.4202862e-14    2.4535929e-14   -3.1641356e-15   -4.6906923e-15    8.5487173e-15   -4.3021142e-14    1.7508217e-13   -5.2180482e-15   -2.1316282e-14   -1.1435297e-14    6.9388939e-14   -1.3045121e-14    1.5321078e-14   -2.0483615e-14   -1.5543122e-15    1.4682700e-14   -2.6229019e-14    4.3798298e-14   -3.4749981e-14   -5.8425487e-14    1.1324275e-14    1.4266366e-14   -1.5765167e-14   -2.9753977e-14    3.4972025e-15   -3.3972825e-14   -9.4702024e-14    2.0594637e-14   -2.1094237e-14    5.1098015e-14    4.9626969e-14    7.4940054e-16   -6.6613381e-16   -7.8825835e-15    3.7247982e-14    1.1657342e-14    9.1870955e-15   -2.5646152e-14   -2.4424907e-14    1.7152946e-14   -2.5257574e-14    5.1680882e-14    4.4131365e-14    4.7767346e-14   -4.7406523e-14    7.3219208e-14   -1.4155344e-15   -8.4043883e-14   -3.6970427e-14    1.4654944e-14   -2.0594637e-14   -7.1609385e-15   -1.4155344e-14   -8.4904306e-14    4.0106807e-14   -1.7330581e-13   -1.0269563e-14    7.9602991e-14    3.8413717e-14    4.6351811e-14    6.7126860e-14    5.4234395e-14   -1.1818324e-13    7.0277117e-14   -3.6443071e-14   -1.6245338e-13   -1.4124812e-13   -1.3616885e-13    3.7969627e-14   -1.9428903e-14   -3.1141756e-14    3.2196468e-15   -4.4853010e-14    8.4571239e-14   -5.1472715e-14    5.2124971e-14    8.3738572e-14    1.1168844e-13    1.1381174e-13    1.0250134e-13    2.2380969e-14    2.3786528e-14    1.2545520e-14   -1.7486013e-15    1.5529245e-14   -7.0526918e-14   -4.1383563e-14   -5.7790578e-14    1.2823076e-14   -4.6990190e-14    2.2348789e-13    9.2231778e-14   -4.3159920e-14    3.0087044e-14   -1.0394463e-13   -5.1625804e-14   -7.0332629e-14    5.0452698e-14   -7.9353191e-14   -2.8005376e-14    1.7204294e-13    7.3045736e-14    1.1035617e-13    5.5112165e-15    4.2396642e-14   -4.4568516e-14    2.7144953e-14   -1.2856383e-13   -3.5610404e-14   -7.9922180e-14    9.8011876e-14   -1.7864529e-13   -1.7056235e-14    1.0395851e-13   -1.0186296e-14   -9.2537089e-14   -2.4966140e-14   -5.1958438e-14    4.6493625e-14   -6.5281114e-14    7.4246165e-14   -4.0731307e-15
            </DataArray>
            <DataArray type="Float64" Name="uy" NumberOfComponents="1" format="ascii">
               0.0000000e+00    0.0000000e+00    0.0000000e+00   -1.4462550e-04    0.0000000e+00    0.0000000e+00   -1.5073677e-04   -3.4877608e-05    0.0000000e+00    1.8932516e-19    0.0000000e+00   -1.0556271e-04    1.4462550e-04    0.0000000e+00    7.8024763e-19   -3.7150701e-05    3.4877608e-05    0.0000000e+00    9.5839337e-20   -6.6042085e-05    0.0000000e+00    1.5073677e-04    1.4462550e-04    0.0000000e+00   -2.7565246e-05    1.3404742e-18    3.4877608e-05    3.7150701e-05   -3.1690010e-20    5.2542812e-19    0.0000000e+00   -4.4599041e-05    1.0556271e-04    1.5073677e-04   -1.8100520e-05    2.7565246e-05    3.7150701e-05   -2.1229442e-19   -3.4877608e-05    2.1362407e-18    9.8103166e-19    2.4234740e-19    6.6042085e-05   -1.4462550e-04   -3.2032887e-05    1.0556271e-04   -1.1848915e-19   -3.7150701e-05   -1.3235963e-05    2.7565246e-05    2.9006029e-18    1.8100520e-05    1.5964779e-18    6.2220195e-19   -2.5483598e-05   -1.5073677e-04    4.4599041e-05    6.6042085e-05    1.8100520e-05    3.3635713e-18    3.2969460e-19   -2.7565246e-05   -1.0679033e-05    1.3235963e-05    2.2991781e-18    1.0903389e-18    4.4599041e-05    3.2032887e-05   -2.3630788e-05   -1.0556271e-04    1.0679033e-05   -1.8100520e-05    1.3235963e-05    5.4652366e-19    3.7820038e-18   -9.0983967e-06    1.6741997e-18    2.8017174e-18    3.2032887e-05    2.5483598e-05   -2.1664266e-05   -6.6042085e-05   -8.3248560e-06    3.9775981e-18    1.0679033e-05    1.0666298e-18   -1.3235963e-05    9.0983967e-06    2.1590388e-18    3.1736031e-18    2.5483598e-05   -1.9697512e-05   -4.4599041e-05    2.3630788e-05   -1.0679033e-05    8.3248560e-06    4.5790775e-18   -7.6662745e-06    1.5095667e-18    9.0983967e-06    2.6492986e-18    3.2434649e-18    2.1664266e-05   -1.7726605e-05    2.3630788e-05   -3.2032887e-05   -9.0983967e-06    8.3248560e-06    5.3892054e-18    7.6662745e-06   -6.9631960e-06    2.0677782e-18    3.2036908e-18    2.6729771e-18    2.1664266e-05    1.9697512e-05   -2.5483598e-05   -1.5757196e-05   -8.3248560e-06   -6.2676977e-06    6.9631960e-06    3.0364739e-18    7.6662745e-06    5.6980535e-18    4.2183221e-18    2.8698976e-18    1.9697512e-05   -1.3787519e-05    1.7726605e-05   -2.3630788e-05    3.1494120e-18   -7.6662745e-06    6.2676977e-06   -5.5711625e-06    5.3334608e-18    6.9631960e-06    4.2957925e-18    3.0077515e-18    1.5757196e-05    1.7726605e-05   -2.1664266e-05   -1.1817880e-05    5.7067434e-18   -6.9631960e-06    2.3273347e-18    6.2676977e-06   -4.8747893e-06    5.5711625e-06    3.3753669e-18    4.6713243e-18    1.3787519e-05   -9.8482005e-06   -1.9697512e-05    1.5757196e-05   -4.1783874e-06   -6.2676977e-06    5.4749927e-18    5.5711625e-06    2.2035984e-18    4.8747893e-06    3.4329054e-18    5.1111614e-18   -7.8786470e-06    1.3787519e-05    1.1817880e-05   -1.7726605e-05   -3.4819873e-06    2.8193378e-18    4.1783874e-06    4.5182570e-18    4.8747893e-06   -5.5711625e-06    5.1695236e-18    4.3557846e-18    9.8482005e-06    1.1817880e-05   -5.9097993e-06   -1.5757196e-05    1.5927411e-18   -4.8747893e-06   -2.7855313e-06    5.2211347e-18    4.1783874e-06    3.4819873e-06    4.0533753e-18    3.7047062e-18   -3.9352044e-06    7.8786470e-06   -1.3787519e-05    9.8482005e-06   -2.0900761e-06    3.4819873e-06    5.1153101e-18    2.4196617e-18    2.7855313e-06   -4.1783874e-06    2.8143085e-18    3.4868231e-18   -1.9096392e-06    5.9097993e-06    7.8786470e-06   -1.1817880e-05    2.7855313e-06   -3.4819873e-06   -1.3894135e-06    4.4457765e-18    2.0900761e-06    3.5741147e-18    3.1326256e-18    2.8290497e-18   -6.9587463e-07    3.9352044e-06   -9.8482005e-06    5.9097993e-06    2.0900761e-06   -6.7122033e-07    3.1721008e-18    1.3894135e-06    2.3321069e-18   -2.7855313e-06    1.4542881e-18    1.5329553e-18   -2.8615523e-07    3.9352044e-06    1.9096392e-06    3.2719361e-18   -7.8786470e-06    6.7122033e-07   -2.0900761e-06    2.4072838e-18    1.3894135e-06    8.5694366e-19    2.3601808e-18    6.9587463e-07    1.9096392e-06    2.8615523e-07   -5.9097993e-06    2.4199963e-18    2.9113145e-18    6.7122033e-07   -1.3894135e-06    1.5872494e-18    6.9587463e-07    2.8615523e-07   -3.9352044e-06   -6.7122033e-07    2.4240714e-18    9.6961729e-19    1.6481637e-18   -2.8615523e-07   -1.9096392e-06   -6.9587463e-07
            </DataArray>
            <DataArray type="Float64" Name="fy" NumberOfComponents="1" format="ascii">
               1.1036400e+02   -7.6272322e-14    8.9157440e+01    2.4870525e-03   -1.1036400e+02   -8.9157440e+01    4.7579315e-03   -3.0690602e-03   -1.5740187e-13   -9.2155450e-14   -1.1036400e+02    3.1170819e-03   -2.4870525e-03   -8.9157440e+01    2.5965341e-14   -3.1861628e-03    3.0690602e-03    2.1133095e-13   -7.3985609e-13    4.2415422e-04    8.9157440e+01   -4.7579315e-03   -2.4870525e-03    2.9520830e-13   -2.8522338e-03   -3.0329905e-14    3.0690602e-03    3.1861628e-03   -7.6369813e-13   -2.8686081e-13    1.1036400e+02    5.1406507e-05   -3.1170819e-03   -4.7579315e-03   -8.5257820e-04    2.8522338e-03    3.1861628e-03   -1.1845733e-13   -3.0690602e-03    3.5187131e-14   -2.1450897e-13   -2.8939351e-13   -4.2415422e-04    2.4870525e-03    1.0826320e-05   -3.1170819e-03    4.0533549e-14   -3.1861628e-03   -2.4143152e-05    2.8522338e-03    2.3758773e-14    8.5257820e-04   -4.2139903e-14   -2.0322286e-13    6.3169404e-07    4.7579315e-03   -5.1406507e-05   -4.2415422e-04    8.5257820e-04   -2.3082231e-14    3.4000580e-16   -2.8522338e-03   -1.9739214e-06    2.4143152e-05   -1.9866053e-14   -4.5116688e-14   -5.1406507e-05   -1.0826320e-05    7.6511930e-14    3.1170819e-03    1.9739216e-06   -8.5257820e-04    2.4143152e-05    4.8804710e-14    5.6097488e-14   -1.9123924e-07   -2.7991498e-14    2.3994695e-14   -1.0826320e-05   -6.3169404e-07    1.1148200e-14    4.2415422e-04   -1.2276638e-14    4.5295365e-14    1.9739216e-06   -1.5043522e-14   -2.4143152e-05    1.9123924e-07    4.1234377e-15   -1.4759027e-14   -6.3169398e-07   -6.8433974e-14    5.1406507e-05   -6.6964663e-15   -1.9739216e-06   -2.6274122e-14   -2.8383546e-14    1.1381521e-13   -7.3548806e-14    1.9123922e-07   -7.5443991e-14   -3.8019934e-14   -7.1869594e-15   -5.6864236e-14   -2.3499215e-14    1.0826320e-05   -1.9123917e-07   -6.4139666e-14    2.2040529e-14   -4.3142573e-14   -2.3439584e-14   -5.8219055e-14    2.4459601e-15    3.2723824e-14    3.6021533e-15    4.4188611e-14    6.3169404e-07   -2.2606916e-14    4.6108950e-15    2.9557953e-14   -1.8072349e-14    3.9360876e-15   -7.6074563e-14    7.5954000e-14    3.9412917e-14    3.5544484e-14    2.7812821e-14   -4.5553838e-15    4.7310246e-14    1.5378107e-14   -2.8179716e-14    5.5476457e-14   -5.2334873e-14    9.5376831e-14    1.7211926e-14   -4.1201417e-14    4.9920137e-14    1.0170337e-13   -3.5841122e-14   -3.2496575e-14   -3.6213220e-14   -5.3041772e-14    5.3312389e-14   -2.5274921e-14   -2.3253968e-14   -9.3914460e-14   -2.8445996e-14   -6.5399075e-15    6.2590558e-14   -1.8179902e-15    4.9443089e-14   -3.9511797e-14   -5.3008813e-14   -1.8052400e-14    7.0821821e-14    9.1281149e-15   -1.2346547e-13   -1.7787855e-14   -3.7395434e-14    9.8369229e-14   -1.2269873e-13   -9.1010532e-14   -7.0964935e-14    5.8781105e-15   -8.2728095e-14   -2.3184579e-15   -1.0868043e-15    9.8246064e-14    3.9497919e-14   -1.0717035e-13   -4.5883436e-14    2.8378341e-14    6.8802603e-14   -6.1013694e-14    5.0940155e-15    5.2633245e-14    3.3359600e-14   -8.5365742e-15    3.2964950e-14   -2.1400416e-14   -4.6441150e-14   -1.3564670e-14    7.2747364e-14    1.5155238e-13   -9.9023220e-14   -4.3952689e-14    3.7009458e-14    8.4095057e-14    2.0927704e-14    1.0784949e-13   -1.3897564e-13    6.2534179e-14   -3.3889124e-14    8.6756990e-14    3.7366811e-14    4.2596135e-15   -8.1905836e-14   -7.3926108e-14   -6.2546322e-14    2.1962900e-13    4.4391574e-14   -3.6672922e-14   -7.1288461e-15   -3.6334651e-14   -9.1631130e-14    8.4495345e-14    2.1329347e-13   -5.8487069e-14    8.1078373e-14   -6.6446414e-14    7.1221458e-14    2.6983624e-15    3.0952671e-14   -3.8011261e-14    9.7815853e-14    2.2802897e-13   -5.0836071e-14    1.7073582e-13    3.1528599e-15    3.9031712e-14   -5.8277168e-14   -2.2607393e-13   -6.4848300e-15    1.2807897e-13   -1.1276223e-13    1.9250497e-14   -6.3589758e-14   -5.4665907e-14    1.0740215e-14   -2.3522850e-14   -1.5364880e-14    1.9572668e-14    9.4855113e-14    3.8184923e-15    1.1866376e-14    3.6402738e-14   -4.6783757e-14   -6.7994872e-14   -1.0032513e-13    2.2712301e-14   -9.1219783e-14   -8.5579547e-14    5.1498434e-14    6.1421354e-14   -7.3455131e-14   -1.3740788e-13    6.3097964e-14   -1.7815262e-13    4.5959818e-14   -5.5935725e-14    7.6983558e-14    7.6821145e-15
            </DataArray>
            <DataArray type="Float64" Name="uz" NumberOfComponents="1" format="ascii">