<?xml version="1.0"?>
<VTKFile type="UnstructuredGrid" version="0.1" byte_order="LittleEndian">
   <UnstructuredGrid>
      <Piece NumberOfPoints="252" NumberOfCells="120">
         <Points>
            <DataArray type="Float64" NumberOfComponents="3" format="ascii">
               0.0000000e+00     0.0000000e+00     0.0000000e+00
               0.0000000e+00     5.0000000e-02     0.0000000e+00
               0.0000000e+00     0.0000000e+00     3.3333330e-02
               5.0000000e-02     0.0000000e+00     0.0000000e+00
               0.0000000e+00     1.0000000e-01     0.0000000e+00
               0.0000000e+00     0.0000000e+00     6.6666670e-02
               1.0000000e-01     0.0000000e+00     0.0000000e+00
               5.0000000e-02     0.0000000e+00     3.3333330e-02
               0.0000000e+00     5.0000000e-02     3.3333330e-02
               5.0000000e-02     5.0000000e-02     0.0000000e+00
               0.0000000e+00     0.0000000e+00     1.0000000e-01
               1.5000000e-01     0.0000000e+00     0.0000000e+00
               5.0000000e-02     1.0000000e-01     0.0000000e+00
               0.0000000e+00     1.0000000e-01     3.3333330e-02
               1.0000000e-01     5.0000000e-02     0.0000000e+00
               1.0000000e-01     0.0000000e+00     3.3333330e-02
               5.0000000e-02     0.0000000e+00     6.6666670e-02
               0.0000000e+00     5.0000000e-02     6.6666670e-02
               5.0000000e-02     5.0000000e-02     3.3333330e-02
               2.0000000e-01     0.0000000e+00     0.0000000e+00
               0.0000000e+00     1.0000000e-01     6.6666670e-02
               1.0000000e-01     1.0000000e-01     0.0000000e+00
               5.0000000e-02     0.0000000e+00     1.0000000e-01
               0.0000000e+00     5.0000000e-02     1.0000000e-01
               1.5000000e-01     0.0000000e+00     3.3333330e-02
               1.5000000e-01     5.0000000e-02     0.0000000e+00
               5.0000000e-02     1.0000000e-01     3.3333330e-02
               1.0000000e-01     0.0000000e+00     6.6666670e-02
               5.0000000e-02     5.0000000e-02     6.6666670e-02
               1.0000000e-01     5.0000000e-02     3.3333330e-02
               0.0000000e+00     1.0000000e-01     1.0000000e-01
               2.5000000e-01     0.0000000e+00     0.0000000e+00
               1.5000000e-01     1.0000000e-01     0.0000000e+00
               1.0000000e-01     0.0000000e+00     1.0000000e-01
               2.0000000e-01     0.0000000e+00     3.3333330e-02
               1.5000000e-01     0.0000000e+00     6.6666670e-02
               1.0000000e-01     1.0000000e-01     3.3333330e-02
               5.0000000e-02     5.0000000e-02     1.0000000e-01
               5.0000000e-02     1.0000000e-01     6.6666670e-02
               2.0000000e-01     5.0000000e-02     0.0000000e+00
               1.5000000e-01     5.0000000e-02     3.3333330e-02
               1.0000000e-01     5.0000000e-02     6.6666670e-02
               2.0000000e-01     1.0000000e-01     0.0000000e+00
               5.0000000e-02     1.0000000e-01     1.0000000e-01
               3.0000000e-01     0.0000000e+00     0.0000000e+00
               1.5000000e-01     0.0000000e+00     1.0000000e-01
               1.0000000e-01     5.0000000e-02     1.0000000e-01
               1.0000000e-01     1.0000000e-01     6.6666670e-02
               2.5000000e-01     0.0000000e+00     3.3333330e-02
               1.5000000e-01     1.0000000e-01     3.3333330e-02
               2.5000000e-01     5.0000000e-02     0.0000000e+00
               2.0000000e-01     0.0000000e+00     6.6666670e-02
               2.0000000e-01     5.0000000e-02     3.3333330e-02
               1.5000000e-01     5.0000000e-02     6.6666670e-02
               3.5000000e-01     0.0000000e+00     0.0000000e+00
               1.0000000e-01     1.0000000e-01     1.0000000e-01
               2.5000000e-01     1.0000000e-01     0.0000000e+00
               2.0000000e-01     0.0000000e+00     1.0000000e-01
               2.0000000e-01     1.0000000e-01     3.3333330e-02
               3.0000000e-01     5.0000000e-02     0.0000000e+00
               1.5000000e-01     5.0000000e-02     1.0000000e-01
               1.5000000e-01     1.0000000e-01     6.6666670e-02
               3.0000000e-01     0.0000000e+00     3.3333330e-02
               2.5000000e-01     0.0000000e+00     6.6666670e-02
               2.5000000e-01     5.0000000e-02     3.3333330e-02
               2.0000000e-01     5.0000000e-02     6.6666670e-02
               2.5000000e-01     0.0000000e+00     1.0000000e-01
               3.0000000e-01     1.0000000e-01     0.0000000e+00
               4.0000000e-01     0.0000000e+00     0.0000000e+00
               1.5000000e-01     1.0000000e-01     1.0000000e-01
               3.0000000e-01     0.0000000e+00     6.6666670e-02
               2.0000000e-01     1.0000000e-01     6.6666670e-02
               2.5000000e-01     1.0000000e-01     3.3333330e-02
               2.0000000e-01     5.0000000e-02     1.0000000e-01
               3.5000000e-01     5.0000000e-02     0.0000000e+00
               3.5000000e-01     0.0000000e+00     3.3333330e-02
               2.5000000e-01     5.0000000e-02     6.6666670e-02
               3.0000000e-01     5.0000000e-02     3.3333330e-02
               3.0000000e-01     0.0000000e+00     1.0000000e-01
               3.5000000e-01     1.0000000e-01     0.0000000e+00
               4.5000000e-01     0.0000000e+00     0.0000000e+00
               2.0000000e-01     1.0000000e-01     1.0000000e-01
               4.0000000e-01     0.0000000e+00     3.3333330e-02
               4.0000000e-01     5.0000000e-02     0.0000000e+00
               3.0000000e-01     1.0000000e-01     3.3333330e-02
               2.5000000e-01     5.0000000e-02     1.0000000e-01
               2.5000000e-01     1.0000000e-01     6.6666670e-02
               3.5000000e-01     0.0000000e+00     6.6666670e-02
               3.0000000e-01     5.0000000e-02     6.6666670e-02
               3.5000000e-01     5.0000000e-02     3.3333330e-02
               3.5000000e-01     0.0000000e+00     1.0000000e-01
               5.0000000e-01     0.0000000e+00     0.0000000e+00
               2.5000000e-01     1.0000000e-01     1.0000000e-01
               4.0000000e-01     1.0000000e-01     0.0000000e+00
               3.0000000e-01     1.0000000e-01     6.6666670e-02
               4.0000000e-01     0.0000000e+00     6.6666670e-02
               4.5000000e-01     5.0000000e-02     0.0000000e+00
               4.5000000e-01     0.0000000e+00     3.3333330e-02
               3.0000000e-01     5.0000000e-02     1.0000000e-01
               3.5000000e-01     1.0000000e-01     3.3333330e-02
               3.5000000e-01     5.0000000e-02     6.6666670e-02
               4.0000000e-01     5.0000000e-02     3.3333330e-02
               4.5000000e-01     1.0000000e-01     0.0000000e+00
               5.5000000e-01     0.0000000e+00     0.0000000e+00
               4.0000000e-01     0.0000000e+00     1.0000000e-01
               3.0000000e-01     1.0000000e-01     1.0000000e-01
               3.5000000e-01     1.0000000e-01     6.6666670e-02
               4.0000000e-01     1.0000000e-01     3.3333330e-02
               5.0000000e-01     5.0000000e-02     0.0000000e+00
               4.5000000e-01     0.0000000e+00     6.6666670e-02
               5.0000000e-01     0.0000000e+00     3.3333330e-02
               3.5000000e-01     5.0000000e-02     1.0000000e-01
               4.5000000e-01     5.0000000e-02     3.3333330e-02
               4.0000000e-01     5.0000000e-02     6.6666670e-02
               4.5000000e-01     0.0000000e+00     1.0000000e-01
               5.0000000e-01     1.0000000e-01     0.0000000e+00
               3.5000000e-01     1.0000000e-01     1.0000000e-01
               6.0000000e-01     0.0000000e+00     0.0000000e+00
               4.0000000e-01     1.0000000e-01     6.6666670e-02
               5.5000000e-01     0.0000000e+00     3.3333330e-02
               5.0000000e-01     0.0000000e+00     6.6666670e-02
               4.0000000e-01     5.0000000e-02     1.0000000e-01
               4.5000000e-01     1.0000000e-01     3.3333330e-02
               5.5000000e-01     5.0000000e-02     0.0000000e+00
               5.0000000e-01     5.0000000e-02     3.3333330e-02
               4.5000000e-01     5.0000000e-02     6.6666670e-02
               5.0000000e-01     0.0000000e+00     1.0000000e-01
               6.5000000e-01     0.0000000e+00     0.0000000e+00
               5.5000000e-01     1.0000000e-01     0.0000000e+00
               4.0000000e-01     1.0000000e-01     1.0000000e-01
               4.5000000e-01     5.0000000e-02     1.0000000e-01
               4.5000000e-01     1.0000000e-01     6.6666670e-02
               5.5000000e-01     0.0000000e+00     6.6666670e-02
               6.0000000e-01     0.0000000e+00     3.3333330e-02
               6.0000000e-01     5.0000000e-02     0.0000000e+00
               5.0000000e-01     1.0000000e-01     3.3333330e-02
               5.5000000e-01     5.0000000e-02     3.3333330e-02
               5.0000000e-01     5.0000000e-02     6.6666670e-02
               6.0000000e-01     1.0000000e-01     0.0000000e+00
               5.5000000e-01     0.0000000e+00     1.0000000e-01
               4.5000000e-01     1.0000000e-01     1.0000000e-01
               7.0000000e-01     0.0000000e+00     0.0000000e+00
               6.5000000e-01     5.0000000e-02     0.0000000e+00
               5.0000000e-01     1.0000000e-01     6.6666670e-02
               5.0000000e-01     5.0000000e-02     1.0000000e-01
               5.5000000e-01     1.0000000e-01     3.3333330e-02
               6.5000000e-01     0.0000000e+00     3.3333330e-02
               6.0000000e-01     0.0000000e+00     6.6666670e-02
               5.5000000e-01     5.0000000e-02     6.6666670e-02
[...]
         <PointData>
            <DataArray type="Int32" Name="node-id" NumberOfComponents="1" format="ascii">
               1  2  3  4  5  6  7  8  9  10  11  12  13  14  15  16  17  18  19  20  21  22  23  24  25  26  27  28  29  30  31  32  33  34  35  36  37  38  39  40  41  42  43  44  45  46  47  48  49  50  51  52  53  54  55  56  57  58  59  60  61  62  63  64  65  66  67  68  69  70  71  72  73  74  75  76  77  78  79  80  81  82  83  84  85  86  87  88  89  90  91  92  93  94  95  96  97  98  99  100  101  102  103  104  105  106  107  108  109  110  111  112  113  114  115  116  117  118  119  120  121  122  123  124  125  126  127  128  129  130  131  132  133  134  135  136  137  138  139  140  141  142  143  144  145  146  147  148  149  150  151  152  153  154  155  156  157  158  159  160  161  162  163  164  165  166  167  168  169  170  171  172  173  174  175  176  177  178  179  180  181  182  183  184  185  186  187  188  189  190  191  192  193  194  195  196  197  198  199  200  201  202  203  204  205  206  207  208  209  210  211  212  213  214  215  216  217  218  219  220  221  222  223  224  225  226  227  228  229  230  231  232  233  234  235  236  237  238  239  240  241  242  243  244  245  246  247  248  249  250  251  252  
            </DataArray>
            <DataArray type="Float64" Name="ux" NumberOfComponents="1" format="ascii">
               0.0000000e+00    0.0000000e+00    0.0000000e+00   -1.4312698e-04    0.0000000e+00    0.0000000e+00   -2.7969448e-04   -4.6419667e-05    0.0000000e+00   -1.4000050e-04    0.0000000e+00   -4.1090575e-04   -1.4312698e-04    0.0000000e+00   -2.8023007e-04   -9.2612150e-05    4.6419667e-05    0.0000000e+00   -4.4293531e-05   -5.3444324e-04    0.0000000e+00   -2.7969448e-04    1.4312698e-04    0.0000000e+00   -1.3603921e-04   -4.1130470e-04   -4.6419667e-05    9.2612150e-05    4.4293531e-05   -9.2919698e-05    0.0000000e+00   -6.5049861e-04   -4.1090575e-04    2.7969448e-04   -1.7729033e-04    1.3603921e-04   -9.2612150e-05    1.4000050e-04    4.6419667e-05   -5.3480529e-04   -1.3631297e-04    9.2919698e-05   -5.3444324e-04    1.4312698e-04   -7.5906329e-04    4.1090575e-04    2.8023007e-04    9.2612150e-05   -2.1596337e-04   -1.3603921e-04   -6.5086118e-04    1.7729033e-04   -1.7751030e-04    1.3631297e-04   -8.6014211e-04    2.7969448e-04   -6.5049861e-04    5.3444324e-04   -1.7729033e-04   -7.5942773e-04    4.1130470e-04    1.3603921e-04   -2.5215346e-04    2.1596337e-04   -2.1619434e-04    1.7751030e-04    6.5049861e-04   -7.5906329e-04   -9.5373328e-04    4.1090575e-04    2.5215346e-04    1.7729033e-04   -2.1596337e-04    5.3480529e-04   -8.6050603e-04   -2.8584609e-04    2.1619434e-04   -2.5238268e-04    7.5906329e-04   -8.6014211e-04   -1.0398373e-03    5.3444324e-04   -3.1704322e-04   -9.5409731e-04   -2.5215346e-04    6.5086118e-04    2.1596337e-04    2.8584609e-04    2.5238268e-04   -2.8607566e-04    8.6014211e-04   -1.1184538e-03    6.5049861e-04   -9.5373328e-04    2.5215346e-04    3.1704322e-04   -1.0402013e-03   -3.4574451e-04    7.5942773e-04   -2.8584609e-04    2.8607566e-04   -3.1727270e-04   -1.0398373e-03   -1.1895832e-03    9.5373328e-04    7.5906329e-04    2.8584609e-04   -3.1704322e-04   -1.1188178e-03    3.4574451e-04   -3.7195007e-04    8.6050603e-04   -3.4597403e-04    3.1727270e-04    1.0398373e-03   -1.1184538e-03    8.6014211e-04   -1.2532253e-03    3.1704322e-04   -3.9565985e-04    3.7195007e-04    9.5409731e-04   -3.4574451e-04   -1.1899472e-03   -3.7217958e-04    3.4597403e-04    1.1184538e-03   -1.3093799e-03   -1.1895832e-03    9.5373328e-04    1.0402013e-03    3.4574451e-04    3.9565985e-04   -4.1687387e-04   -1.2535893e-03   -3.7195007e-04   -3.9588936e-04    3.7217958e-04   -1.2532253e-03    1.1895832e-03    1.0398373e-03   -1.3580474e-03   -1.3097440e-03    3.7195007e-04    1.1188178e-03   -3.9565985e-04   -4.3559211e-04    4.1687387e-04    3.9588936e-04   -4.1710338e-04   -1.3093799e-03   -1.3992275e-03    1.1184538e-03    1.2532253e-03   -4.5181462e-04    3.9565985e-04   -1.3584114e-03   -4.1687387e-04    1.1899472e-03    4.3559211e-04    4.1710338e-04   -4.3582162e-04   -1.4329205e-03    1.3093799e-03   -1.3580474e-03    1.1895832e-03   -4.6554132e-04    1.2535893e-03    4.5181462e-04   -1.3995916e-03   -4.3559211e-04    4.1687387e-04   -4.5204413e-04    4.3582162e-04   -1.3992275e-03    1.3580474e-03   -1.4591261e-03    1.2532253e-03    1.3097440e-03    4.3559211e-04   -4.7677240e-04   -1.4332844e-03   -4.5181462e-04    4.6554132e-04    4.5204413e-04   -4.6577083e-04   -1.4778373e-03   -1.4329205e-03    1.3093799e-03    1.3992275e-03   -4.8550690e-04   -4.6554132e-04   -1.4594900e-03    1.3584114e-03    4.7677240e-04    4.5181462e-04    4.6577083e-04   -4.7700168e-04   -1.4891179e-03   -1.4591261e-03    1.4329205e-03    1.3580474e-03   -4.7677240e-04    4.6554132e-04   -4.9174554e-04   -1.4782145e-03    4.8550690e-04    1.3995916e-03    4.7700168e-04   -4.8573731e-04   -1.4929732e-03   -1.4778373e-03    1.3992275e-03    1.4591261e-03   -4.8550690e-04   -4.9551018e-04   -1.4893857e-03    4.9174554e-04    1.4332844e-03    4.7677240e-04   -4.9197866e-04    4.8573731e-04   -4.9680355e-04    1.4778373e-03   -1.4891179e-03   -1.4931187e-03    1.4329205e-03    4.9551018e-04    4.8550690e-04    1.4594900e-03   -4.9174554e-04    4.9197866e-04   -4.9569400e-04   -1.4929732e-03    1.4891179e-03    4.9680355e-04    1.4591261e-03   -4.9693679e-04    1.4782145e-03   -4.9551018e-04    4.9174554e-04    4.9569400e-04    1.4929732e-03   -4.9680355e-04    1.4778373e-03    4.9551018e-04    1.4893857e-03    4.9693679e-04    1.4931187e-03    4.9680355e-04    1.4891179e-03    1.4929732e-03
            </DataArray>
            <DataArray type="Float64" Name="fx" NumberOfComponents="1" format="ascii">
               2.3108733e+02    4.4063617e+02    1.6263940e+02   -9.4146912e-14    2.3108733e+02   -1.6263940e+02    1.5720758e-13    1.3322676e-15    2.9979037e+02    2.6645353e-15   -2.3108733e+02    2.8999025e-13   -1.8651747e-14    1.6263940e+02    2.7533531e-14   -1.5543122e-15    1.9539925e-14   -2.9979037e+02    2.3092639e-14   -3.0198066e-14   -1.6263940e+02   -7.1942452e-14    1.2434498e-14   -4.4063617e+02    7.3274720e-15    4.8139270e-13   -1.3544721e-14   -6.4614980e-14   -5.5511151e-14   -5.3290705e-15   -2.3108733e+02   -2.6645353e-13   -6.6169292e-14   -5.0626170e-14    5.1070259e-14   -4.5297099e-14    1.7830182e-13   -5.8619776e-14    6.4392935e-15    2.6600944e-13   -2.5446312e-13   -1.6520119e-13    1.0480505e-13    3.0198066e-14    6.1195493e-13    1.7497115e-13    1.5099033e-14    4.0190073e-14    3.3972825e-14    1.1901591e-13    3.0153657e-13   -8.3044682e-14    3.8502534e-13   -5.1958438e-14    1.2390089e-13   -3.4638958e-14    2.1405100e-13    1.3322676e-13   -1.1879386e-13   -1.7186252e-13    1.6564528e-13   -1.1612933e-13    4.4853010e-14    1.0369483e-13   -1.1552981e-12   -7.0898842e-13   -3.1663561e-13    1.5765167e-13    2.7222669e-13    1.6875390e-14   -1.2012613e-13   -5.6843419e-14   -1.9806379e-13   -1.4610535e-13    7.4473760e-13   -4.7672977e-13   -1.9162449e-13    3.5127456e-13   -2.4025226e-13    1.2301271e-13    7.5939255e-13   -1.5587531e-13   -4.5352611e-13    1.1599610e-12    4.3809401e-13   -2.4957814e-13    1.0969003e-13   -3.8991033e-13    1.3145041e-13    1.0856871e-12   -7.1054274e-14   -1.3367085e-13   -2.2071234e-13    3.5571546e-13   -2.8910208e-13   -1.5210055e-13   -9.9475983e-13    5.9896532e-13   -3.0686564e-13   -4.9038551e-13   -4.7939430e-13   -1.0694778e-12   -5.9596772e-13    8.0824236e-13    2.7267077e-13   -1.9895197e-13    2.9110048e-13   -7.6405549e-13    3.3857361e-12    8.3621998e-13    1.2058132e-12   -1.4921397e-13   -7.6416651e-13   -1.5147883e-12   -4.2632564e-14   -1.9273472e-13    4.0900616e-13    2.5535130e-14    1.0680345e-13   -3.5949022e-13    9.8476782e-14    8.9883656e-13   -4.3631765e-13    1.2834178e-12    2.0918822e-12    7.0765616e-13    4.4408921e-16    2.0294877e-13   -2.2271074e-13   -7.9936058e-14    1.7763568e-15   -2.0183855e-13    1.6069368e-12   -6.3726802e-14    1.5369928e-12   -8.9206420e-13   -2.9876102e-13    1.7208457e-13   -1.4943602e-13    4.3742787e-13   -5.4001248e-13   -2.1700419e-12   -3.7878589e-12    7.5184303e-13   -1.9539925e-13   -1.5003554e-12    1.6766588e-12   -2.1405100e-13    6.9499961e-13    9.9009689e-13   -1.0347279e-13    4.4830806e-13    2.0206059e-13    5.2180482e-13    1.7366109e-12   -8.3055784e-13    4.7184479e-13    1.6220358e-13    5.6354921e-13   -1.9201307e-12   -4.6906923e-13    1.5256685e-12   -9.1671115e-13   -1.4654944e-13    2.8865799e-14    1.0735857e-12    1.6882051e-12   -1.4566126e-13   -4.0378811e-13   -2.9578562e-12    6.4248606e-13    2.5224267e-13    4.1261439e-12    2.6121327e-12   -1.6486812e-12    5.5400129e-13    2.6145752e-13    1.1410872e-12    1.5674129e-12   -1.3984369e-12   -8.8262730e-15   -3.0626612e-12   -7.3197004e-13    3.6348702e-13   -4.1704418e-12   -9.6556096e-13    2.8012037e-12   -1.1489698e-12    7.1964656e-13   -1.7696955e-12    3.7425618e-13   -2.1997959e-12    2.2537527e-13    2.6172398e-12   -1.4223067e-12   -1.9729773e-12   -9.0522034e-13    5.4136140e-12    1.7613411e-12   -2.3356872e-12   -7.1709305e-13    2.2537527e-13   -4.1705528e-13   -4.1938675e-13   -6.0845773e-13    3.7193026e-12   -7.7812756e-13   -2.5270896e-12   -9.7682973e-13    7.7104989e-13   -2.2165854e-12    1.8626212e-12   -1.5882851e-12    5.9263705e-13    1.6596724e-12    3.1368796e-12   -8.0490337e-12    1.1080650e-12    2.5639491e-12   -7.4096285e-13   -1.5596413e-12    1.3395951e-12   -6.3563044e-13    4.9921178e-13    1.5803470e-12   -5.2822503e-13    7.2164497e-13    1.7652893e-12    1.2637391e-12    1.4389601e-12   -2.4167890e-12    2.7149949e-12   -2.7558511e-13   -1.7678810e-12    3.5707548e-13   -1.2472523e-12    1.3012924e-12   -4.3793025e-12   -4.6871951e-12    3.7512493e-12   -2.4505328e-12    8.0657356e-12    6.1404874e-14    3.7619630e-12    4.2521542e-12   -9.1102126e-13    1.4183932e-12   -3.2965297e-13    2.3226854e-12    1.5706048e-12   -2.0980440e-12   -1.2804063e-12
            </DataArray>
            <DataArray type="Float64" Name="uy" NumberOfComponents="1" format="ascii">
               0.0000000e+00    0.0000000e+00    0.0000000e+00   -2.6934844e-05    0.0000000e+00    0.0000000e+00   -2.5103493e-05   -9.6461627e-06    0.0000000e+00    2.8460853e-17    0.0000000e+00   -2.3557091e-05    2.6934844e-05    0.0000000e+00    1.1572876e-16   -8.9633868e-06    9.6461627e-06    0.0000000e+00    2.9864949e-17   -2.2158210e-05    0.0000000e+00    2.5103493e-05    2.6934844e-05    0.0000000e+00   -8.2985971e-06    2.5093851e-16    9.6461627e-06    8.9633868e-06    2.7086233e-17    1.1446585e-16    0.0000000e+00   -2.0783287e-05    2.3557091e-05    2.5103493e-05   -7.8411167e-06    8.2985971e-06    8.9633868e-06    1.9977871e-17   -9.6461627e-06    4.3033501e-16    2.4648373e-16    1.0879009e-16    2.2158210e-05   -2.6934844e-05   -1.9395762e-05    2.3557091e-05    9.8682614e-17   -8.9633868e-06   -7.3468750e-06    8.2985971e-06    6.4939581e-16    7.8411167e-06    4.2272572e-16    2.3800202e-16   -1.8010616e-05   -2.5103493e-05    2.0783287e-05    2.2158210e-05    7.8411167e-06    9.0377939e-16    2.2550450e-16   -8.2985971e-06   -6.8579261e-06    7.3468750e-06    6.3878402e-16    4.1147447e-16    2.0783287e-05    1.9395762e-05   -1.6625148e-05   -2.3557091e-05    6.8579261e-06   -7.8411167e-06    7.3468750e-06    3.9655851e-16    1.1894578e-15   -6.3678781e-06    6.2475234e-16    8.9012141e-16    1.9395762e-05    1.8010616e-05   -1.5239725e-05   -2.2158210e-05   -5.8780779e-06    1.5022898e-15    6.8579261e-06    6.0753025e-16   -7.3468750e-06    6.3678781e-06    8.7355223e-16    1.1728911e-15    1.8010616e-05   -1.3854295e-05   -2.0783287e-05    1.6625148e-05   -6.8579261e-06    5.8780779e-06    1.8389759e-15   -5.3882327e-06    8.5411843e-16    6.3678781e-06    1.1537930e-15    1.4827789e-15    1.5239725e-05   -1.2468865e-05    1.6625148e-05   -1.9395762e-05   -6.3678781e-06    5.8780779e-06    2.1951585e-15    5.3882327e-06   -4.8983939e-06    1.1320370e-15    1.8162313e-15    1.4611315e-15    1.5239725e-05    1.3854295e-05   -1.8010616e-05   -1.1083436e-05   -5.8780779e-06   -4.4085546e-06    4.8983939e-06    1.4378481e-15    5.3882327e-06    2.5663345e-15    2.1696368e-15    1.7920058e-15    1.3854295e-05   -9.6980066e-06    1.2468865e-05   -1.6625148e-05    1.7662488e-15   -5.3882327e-06    4.4085546e-06   -3.9187153e-06    2.9502117e-15    4.8983939e-06    2.5379968e-15    2.1421995e-15    1.1083436e-05    1.2468865e-05   -1.5239725e-05   -8.3125788e-06    3.3422770e-15   -4.8983939e-06    2.1134105e-15    4.4085546e-06   -3.4288757e-06    3.9187153e-06    2.5089378e-15    2.9198526e-15    9.6980066e-06   -6.9271264e-06   -1.3854295e-05    1.1083436e-05   -2.9390367e-06   -4.4085546e-06    3.7409803e-15    3.9187153e-06    2.4783165e-15    3.4288757e-06    2.8886663e-15    3.3106181e-15   -5.5417618e-06    9.6980066e-06    8.3125788e-06   -1.2468865e-05   -2.4491953e-06    2.8565733e-15    2.9390367e-06    4.1437563e-15    3.4288757e-06   -3.9187153e-06    3.7088477e-15    3.2783603e-15    6.9271264e-06    8.3125788e-06   -4.1568937e-06   -1.1083436e-05    3.2448202e-15   -3.4288757e-06   -1.9593149e-06    4.5496901e-15    2.9390367e-06    2.4491953e-06    3.6754513e-15    4.1117995e-15   -2.7679835e-06    5.5417618e-06   -9.6980066e-06    6.9271264e-06   -1.4701387e-06    2.4491953e-06    4.9552266e-15    3.6416504e-15    1.9593149e-06   -2.9390367e-06    4.0799519e-15    4.5195357e-15   -1.3432212e-06    4.1568937e-06    5.5417618e-06   -8.3125788e-06    1.9593149e-06   -2.4491953e-06   -9.7729958e-07    5.3589043e-15    1.4701387e-06    4.0483398e-15    4.4903410e-15    4.9291342e-15   -4.8947129e-07    2.7679835e-06   -6.9271264e-06    4.1568937e-06    1.4701387e-06   -4.7212967e-07    5.7630800e-15    9.7729958e-07    4.4594459e-15   -1.9593149e-06    5.3388588e-15    4.9033407e-15   -2.0127872e-07    2.7679835e-06    1.3432212e-06    6.1692294e-15   -5.5417618e-06    4.7212970e-07   -1.4701387e-06    4.8783054e-15    9.7729958e-07    5.3194050e-15    5.7498070e-15    4.8947129e-07    1.3432212e-06    2.0127874e-07   -4.1568937e-06    6.1631989e-15    5.3004620e-15    4.7212970e-07   -9.7729958e-07    5.7371401e-15    4.8947129e-07    2.0127874e-07   -2.7679835e-06   -4.7212967e-07    5.7258178e-15    6.1531878e-15    6.1468436e-15   -2.0127872e-07   -1.3432212e-06   -4.8947129e-07
            </DataArray>
            <DataArray type="Float64" Name="fy" NumberOfComponents="1" format="ascii">
               4.0954105e+01    9.3541841e-12    3.4599888e+01   -1.8360313e-14   -4.0954105e+01   -3.4599888e+01    9.9314654e-14   -4.3021142e-16    1.5227444e-11    2.4650421e-14   -4.0954105e+01    9.6344807e-14   -2.3980817e-14   -3.4599888e+01    5.6100957e-15    8.4654506e-15    1.3732071e-14    2.2302493e-11    1.1234069e-14    1.0018028e-13    3.4599888e+01   -2.0513105e-14    6.3699046e-15    1.8498980e-11    4.8988591e-14    1.1654913e-13   -2.4313884e-14    3.7123082e-15    1.5078216e-14   -3.1925851e-14    4.0954105e+01   -1.9515639e-14   -7.6378140e-14    3.0014186e-14    9.3619557e-14   -1.3183898e-14    5.1042504e-14   -4.9158594e-14    8.0491169e-15    1.8338803e-13    6.0340621e-14    7.2858386e-15    1.1395052e-13   -7.0776718e-16    2.7976579e-13   -3.5816836e-14   -1.0393422e-13    4.0356607e-14    3.4043601e-13    6.8181571e-14    3.5928899e-13    1.9116653e-13    1.0276502e-14   -3.2612801e-14   -1.4459441e-13    1.2673890e-14   -4.1161519e-14    6.8972605e-15    1.4149792e-13   -5.0820459e-14    1.4000953e-13    8.0421780e-15    3.2807784e-13    1.3731377e-13    9.6764957e-13   -9.2176267e-14    3.0600522e-14    2.7563021e-13   -2.4856506e-13    1.0989473e-13    2.8071295e-13   -1.2925078e-13    4.4501902e-13   -3.4704878e-13   -3.1370739e-14   -3.2758518e-14   -1.8583746e-13    4.5837639e-13   -3.7464996e-13    1.5507040e-13    9.4974029e-13    3.7284412e-14   -4.7767346e-14    5.4684035e-13    9.7345743e-14   -2.8633346e-14   -1.2289475e-13    1.6932983e-13    1.0653978e-13    9.3806907e-13   -1.8648277e-14    2.0716744e-12    1.8863383e-13   -5.8541713e-14   -3.5001169e-13    2.1968538e-14    4.8021656e-13    1.2825019e-12    3.1720807e-13    2.8035907e-13    1.1609949e-12    5.9953431e-13    1.1168132e-12   -4.8184547e-13   -4.5233088e-13    1.3187715e-13   -1.5404344e-13   -1.2526091e-12    3.0091554e-13    1.1647419e-12    1.3484561e-12    4.1154580e-13    1.2716564e-13    9.2482272e-13    2.8806645e-13    6.1171207e-13   -3.9649534e-13    1.2665823e-12   -7.4280165e-13    6.7054695e-13    1.6042029e-13    1.3808989e-12    1.5152185e-12   -4.3636796e-13    1.4738488e-12    1.9088481e-12   -8.2967314e-13    2.3345353e-12    9.1467979e-13   -1.3159612e-13   -6.6630729e-14    1.1460485e-12    2.4668045e-12    1.2851525e-13    3.3880797e-12   -7.7639284e-14   -1.5820574e-12   -6.2300165e-13    5.9042875e-13    5.5695032e-14   -7.6690564e-13   -9.6333358e-13    1.0463054e-12    1.0778184e-13   -1.1418227e-12    4.8253068e-14    2.8261768e-13    2.0000807e-12    9.5241870e-13    3.5236536e-12    4.9361730e-13    9.9110650e-13   -4.8318294e-13   -4.1265255e-13    2.3049826e-12    9.0786406e-13   -3.7880810e-13    1.9142812e-12   -1.4567340e-12    1.2797263e-12    1.5467627e-12   -6.2486821e-13   -1.6092561e-12    1.3392239e-13   -1.1401765e-12   -2.4966487e-13    2.6282830e-12   -1.9119255e-13    4.0071384e-12    2.7338617e-12    2.9411890e-13    5.1313814e-13   -1.5986518e-13    6.1713828e-13   -1.9083936e-12    7.4991922e-13    2.1373493e-12   -5.2372690e-13    2.5154046e-12   -1.6454026e-12    2.4900706e-12    2.7704592e-12    1.7633013e-12   -1.8656882e-12   -5.1224615e-12   -2.6300871e-12    2.5322609e-12    6.0459797e-13   -4.5697821e-14    2.1718738e-13    7.4356025e-12   -1.9285615e-13    2.5315722e-12   -4.5309242e-14   -3.0003812e-12   -5.8765666e-13    4.5776924e-13   -2.3413962e-12    4.9806929e-12    4.4259908e-13   -2.9868989e-13   -1.0900864e-12   -4.3749379e-13    1.9729687e-12    1.7014515e-13   -1.5674354e-12    3.3202039e-12    3.1264054e-12    2.6292041e-12    1.6280727e-13   -8.8616343e-13   -1.4871090e-12   -3.3027036e-12   -2.5439911e-12   -4.7182189e-12    5.7917109e-12    2.1221896e-12    1.4110943e-12    1.1923310e-12   -2.1474940e-12    9.0774957e-13    2.6780210e-12    2.1391855e-12    1.4248342e-12    4.8636442e-13   -9.7133477e-13    9.4085330e-13    1.1159415e-12    7.4262688e-13   -9.3484769e-13   -2.2837982e-13   -1.2472228e-14   -4.2272869e-12    1.3397622e-12    1.9560568e-12   -1.2436649e-12   -9.9549188e-13    1.4763191e-13   -4.8912801e-12   -2.1768325e-12   -1.7711744e-13   -6.5106427e-12    2.4319000e-12   -5.4075147e-13    1.1882162e-12    2.0559691e-12    2.5155399e-13    2.9347978e-12    7.9966199e-14   -2.9413364e-13    4.5729392e-13   -5.0666242e-13
            </DataArray>
            <DataArray type="Float64" Name="uz" NumberOfComponents="1" format="ascii">