<?xml version="1.0"?>
<VTKFile type="UnstructuredGrid" version="0.1" byte_order="LittleEndian">
   <UnstructuredGrid>
      <Piece NumberOfPoints="252" NumberOfCells="120">
         <Points>
            <DataArray type="Float64" NumberOfComponents="3" format="ascii">
               0.0000000e+00     0.0000000e+00     0.0000000e+00
               0.0000000e+00     5.0000000e-02     0.0000000e+00
               0.0000000e+00     0.0000000e+00     3.3333330e-02
               5.0000000e-02     0.0000000e+00     0.0000000e+00
               0.0000000e+00     1.0000000e-01     0.0000000e+00
               0.0000000e+00     0.0000000e+00     6.6666670e-02
               1.0000000e-01     0.0000000e+00     0.0000000e+00
               5.0000000e-02     0.0000000e+00     3.3333330e-02
               0.0000000e+00     5.0000000e-02     3.3333330e-02
               5.0000000e-02     5.0000000e-02     0.0000000e+00
               0.0000000e+00     0.0000000e+00     1.0000000e-01
               1.5000000e-01     0.0000000e+00     0.0000000e+00
               5.0000000e-02     1.0000000e-01     0.0000000e+00
               0.0000000e+00     1.0000000e-01     3.3333330e-02
               1.0000000e-01     5.0000000e-02     0.0000000e+00
               1.0000000e-01     0.0000000e+00     3.3333330e-02
               5.0000000e-02     0.0000000e+00     6.6666670e-02
               0.0000000e+00     5.0000000e-02     6.6666670e-02
               5.0000000e-02     5.0000000e-02     3.3333330e-02
               2.0000000e-01     0.0000000e+00     0.0000000e+00
               0.0000000e+00     1.0000000e-01     6.6666670e-02
               1.0000000e-01     1.0000000e-01     0.0000000e+00
               5.0000000e-02     0.0000000e+00     1.0000000e-01
               0.0000000e+00     5.0000000e-02     1.0000000e-01
               1.5000000e-01     0.0000000e+00     3.3333330e-02
               1.5000000e-01     5.0000000e-02     0.0000000e+00
               5.0000000e-02     1.0000000e-01     3.3333330e-02
               1.0000000e-01     0.0000000e+00     6.6666670e-02
               5.0000000e-02     5.0000000e-02     6.6666670e-02
               1.0000000e-01     5.0000000e-02     3.3333330e-02
               0.0000000e+00     1.0000000e-01     1.0000000e-01
               2.5000000e-01     0.0000000e+00     0.0000000e+00
               1.5000000e-01     1.0000000e-01     0.0000000e+00
               1.0000000e-01     0.0000000e+00     1.0000000e-01
               2.0000000e-01     0.0000000e+00     3.3333330e-02
               1.5000000e-01     0.0000000e+00     6.6666670e-02
               1.0000000e-01     1.0000000e-01     3.3333330e-02
               5.0000000e-02     5.0000000e-02     1.0000000e-01
               5.0000000e-02     1.0000000e-01     6.6666670e-02
               2.0000000e-01     5.0000000e-02     0.0000000e+00
               1.5000000e-01     5.0000000e-02     3.3333330e-02
               1.0000000e-01     5.0000000e-02     6.6666670e-02
               2.0000000e-01     1.0000000e-01     0.0000000e+00
               5.0000000e-02     1.0000000e-01     1.0000000e-01
               3.0000000e-01     0.0000000e+00     0.0000000e+00
               1.5000000e-01     0.0000000e+00     1.0000000e-01
               1.0000000e-01     5.0000000e-02     1.0000000e-01
               1.0000000e-01     1.0000000e-01     6.6666670e-02
               2.5000000e-01     0.0000000e+00     3.3333330e-02
               1.5000000e-01     1.0000000e-01     3.3333330e-02
               2.5000000e-01     5.0000000e-02     0.0000000e+00
               2.0000000e-01     0.0000000e+00     6.6666670e-02
               2.0000000e-01     5.0000000e-02     3.3333330e-02
               1.5000000e-01     5.0000000e-02     6.6666670e-02
               3.5000000e-01     0.0000000e+00     0.0000000e+00
               1.0000000e-01     1.0000000e-01     1.0000000e-01
               2.5000000e-01     1.0000000e-01     0.0000000e+00
               2.0000000e-01     0.0000000e+00     1.0000000e-01
               2.0000000e-01     1.0000000e-01     3.3333330e-02
               3.0000000e-01     5.0000000e-02     0.0000000e+00
               1.5000000e-01     5.0000000e-02     1.0000000e-01
               1.5000000e-01     1.0000000e-01     6.6666670e-02
               3.0000000e-01     0.0000000e+00     3.3333330e-02
               2.5000000e-01     0.0000000e+00     6.6666670e-02
               2.5000000e-01     5.0000000e-02     3.3333330e-02
               2.0000000e-01     5.0000000e-02     6.6666670e-02
               2.5000000e-01     0.0000000e+00     1.0000000e-01
               3.0000000e-01     1.0000000e-01     0.0000000e+00
               4.0000000e-01     0.0000000e+00     0.0000000e+00
               1.5000000e-01     1.0000000e-01     1.0000000e-01
               3.0000000e-01     0.0000000e+00     6.6666670e-02
               2.0000000e-01     1.0000000e-01     6.6666670e-02
               2.5000000e-01     1.0000000e-01     3.3333330e-02
               2.0000000e-01     5.0000000e-02     1.0000000e-01
               3.5000000e-01     5.0000000e-02     0.0000000e+00
               3.5000000e-01     0.0000000e+00     3.3333330e-02
               2.5000000e-01     5.0000000e-02     6.6666670e-02
               3.0000000e-01     5.0000000e-02     3.3333330e-02
               3.0000000e-01     0.0000000e+00     1.0000000e-01
               3.5000000e-01     1.0000000e-01     0.0000000e+00
               4.5000000e-01     0.0000000e+00     0.0000000e+00
               2.0000000e-01     1.0000000e-01     1.0000000e-01
               4.0000000e-01     0.0000000e+00     3.3333330e-02
               4.0000000e-01     5.0000000e-02     0.0000000e+00
               3.0000000e-01     1.0000000e-01     3.3333330e-02
               2.5000000e-01     5.0000000e-02     1.0000000e-01
               2.5000000e-01     1.0000000e-01     6.6666670e-02
               3.5000000e-01     0.0000000e+00     6.6666670e-02
               3.0000000e-01     5.0000000e-02     6.6666670e-02
               3.5000000e-01     5.0000000e-02     3.3333330e-02
               3.5000000e-01     0.0000000e+00     1.0000000e-01
               5.0000000e-01     0.0000000e+00     0.0000000e+00
               2.5000000e-01     1.0000000e-01     1.0000000e-01
               4.0000000e-01     1.0000000e-01     0.0000000e+00
               3.0000000e-01     1.0000000e-01     6.6666670e-02
               4.0000000e-01     0.0000000e+00     6.6666670e-02
               4.5000000e-01     5.0000000e-02     0.0000000e+00
               4.5000000e-01     0.0000000e+00     3.3333330e-02
               3.0000000e-01     5.0000000e-02     1.0000000e-01
               3.5000000e-01     1.0000000e-01     3.3333330e-02
               3.5000000e-01     5.0000000e-02     6.6666670e-02
               4.0000000e-01     5.0000000e-02     3.3333330e-02
               4.5000000e-01     1.0000000e-01     0.0000000e+00
               5.5000000e-01     0.0000000e+00     0.0000000e+00
               4.0000000e-01     0.0000000e+00     1.0000000e-01
               3.0000000e-01     1.0000000e-01     1.0000000e-01
               3.5000000e-01     1.0000000e-01     6.6666670e-02
               4.0000000e-01     1.0000000e-01     3.3333330e-02
               5.0000000e-01     5.0000000e-02     0.0000000e+00
               4.5000000e-01     0.0000000e+00     6.6666670e-02
               5.0000000e-01     0.0000000e+00     3.3333330e-02
               3.5000000e-01     5.0000000e-02     1.0000000e-01
               4.5000000e-01     5.0000000e-02     3.3333330e-02
               4.0000000e-01     5.0000000e-02     6.6666670e-02
               4.5000000e-01     0.0000000e+00     1.0000000e-01
               5.0000000e-01     1.0000000e-01     0.0000000e+00
               3.5000000e-01     1.0000000e-01     1.0000000e-01
               6.0000000e-01     0.0000000e+00     0.0000000e+00
               4.0000000e-01     1.0000000e-01     6.6666670e-02
               5.5000000e-01     0.0000000e+00     3.3333330e-02
               5.0000000e-01     0.0000000e+00     6.6666670e-02
               4.0000000e-01     5.0000000e-02     1.0000000e-01
               4.5000000e-01     1.0000000e-01     3.3333330e-02
               5.5000000e-01     5.0000000e-02     0.0000000e+00
               5.0000000e-01     5.0000000e-02     3.3333330e-02
               4.5000000e-01     5.0000000e-02     6.6666670e-02
               5.0000000e-01     0.0000000e+00     1.0000000e-01
               6.5000000e-01     0.0000000e+00     0.0000000e+00
               5.5000000e-01     1.0000000e-01     0.0000000e+00
               4.0000000e-01     1.0000000e-01     1.0000000e-01
               4.5000000e-01     5.0000000e-02     1.0000000e-01
               4.5000000e-01     1.0000000e-01     6.6666670e-02
               5.5000000e-01     0.0000000e+00     6.6666670e-02
               6.0000000e-01     0.0000000e+00     3.3333330e-02
               6.0000000e-01     5.0000000e-02     0.0000000e+00
               5.0000000e-01     1.0000000e-01     3.3333330e-02
               5.5000000e-01     5.0000000e-02     3.3333330e-02
               5.0000000e-01     5.0000000e-02     6.6666670e-02
               6.0000000e-01     1.0000000e-01     0.0000000e+00
               5.5000000e-01     0.0000000e+00     1.0000000e-01
               4.5000000e-01     1.0000000e-01     1.0000000e-01
               7.0000000e-01     0.0000000e+00     0.0000000e+00
               6.5000000e-01     5.0000000e-02     0.0000000e+00
               5.0000000e-01     1.0000000e-01     6.6666670e-02
               5.0000000e-01     5.0000000e-02     1.0000000e-01
               5.5000000e-01     1.0000000e-01     3.3333330e-02
               6.5000000e-01     0.0000000e+00     3.3333330e-02
               6.0000000e-01     0.0000000e+00     6.6666670e-02
               5.5000000e-01     5.0000000e-02     6.6666670e-02
[...]
         <PointData>
            <DataArray type="Int32" Name="node-id" NumberOfComponents="1" format="ascii">
               1  2  3  4  5  6  7  8  9  10  11  12  13  14  15  16  17  18  19  20  21  22  23  24  25  26  27  28  29  30  31  32  33  34  35  36  37  38  39  40  41  42  43  44  45  46  47  48  49  50  51  52  53  54  55  56  57  58  59  60  61  62  63  64  65  66  67  68  69  70  71  72  73  74  75  76  77  78  79  80  81  82  83  84  85  86  87  88  89  90  91  92  93  94  95  96  97  98  99  100  101  102  103  104  105  106  107  108  109  110  111  112  113  114  115  116  117  118  119  120  121  122  123  124  125  126  127  128  129  130  131  132  133  134  135  136  137  138  139  140  141  142  143  144  145  146  147  148  149  150  151  152  153  154  155  156  157  158  159  160  161  162  163  164  165  166  167  168  169  170  171  172  173  174  175  176  177  178  179  180  181  182  183  184  185  186  187  188  189  190  191  192  193  194  195  196  197  198  199  200  201  202  203  204  205  206  207  208  209  210  211  212  213  214  215  216  217  218  219  220  221  222  223  224  225  226  227  228  229  230  231  232  233  234  235  236  237  238  239  240  241  242  243  244  245  246  247  248  249  250  251  252  
            </DataArray>
            <DataArray type="Float64" Name="ux" NumberOfComponents="1" format="ascii">
               0.0000000e+00    0.0000000e+00    0.0000000e+00   -3.2733820e-04    0.0000000e+00    0.0000000e+00   -7.2781852e-04   -1.0833512e-04    0.0000000e+00   -3.0469161e-04    0.0000000e+00   -1.0797447e-03   -3.2733820e-04    0.0000000e+00   -7.3281891e-04   -2.4365284e-04    1.0833512e-04    0.0000000e+00   -9.9557430e-05   -1.3476145e-03    0.0000000e+00   -7.2781852e-04    3.2733820e-04    0.0000000e+00   -3.5958280e-04   -1.0917435e-03   -1.0833512e-04    2.4365284e-04    9.9557430e-05   -2.4484043e-04    0.0000000e+00   -1.5527221e-03   -1.0797447e-03    7.2781852e-04   -4.4721074e-04    3.5958280e-04   -2.4365284e-04    3.0469161e-04    1.0833512e-04   -1.3547329e-03   -3.6370839e-04    2.4484043e-04   -1.3476145e-03    3.2733820e-04   -1.7241337e-03    1.0797447e-03    7.3281891e-04    2.4365284e-04   -5.1507237e-04   -3.5958280e-04   -1.5567396e-03    4.4721074e-04   -4.5061464e-04    3.6370839e-04   -1.8694609e-03    7.2781852e-04   -1.5527221e-03    1.3476145e-03   -4.4721074e-04   -1.7263391e-03    1.0917435e-03    3.5958280e-04   -5.7245500e-04    5.1507237e-04   -5.1722425e-04    4.5061464e-04    1.5527221e-03   -1.7241337e-03   -2.0026823e-03    1.0797447e-03    5.7245500e-04    4.4721074e-04   -5.1507237e-04    1.3547329e-03   -1.8702330e-03   -6.2193209e-04    5.1722425e-04   -5.7369791e-04    1.7241337e-03   -1.8694609e-03   -2.1250537e-03    1.3476145e-03   -6.6631782e-04   -2.0031603e-03   -5.7245500e-04    1.5567396e-03    5.1507237e-04    6.2193209e-04    5.7369791e-04   -6.2254356e-04    1.8694609e-03   -2.2368114e-03    1.5527221e-03   -2.0026823e-03    5.7245500e-04    6.6631782e-04   -2.1255726e-03   -7.0712098e-04    1.7263391e-03   -6.2193209e-04    6.2254356e-04   -6.6661957e-04   -2.1250537e-03   -2.3379235e-03    2.0026823e-03    1.7241337e-03    6.2193209e-04   -6.6631782e-04   -2.2373286e-03    7.0712098e-04   -7.4436935e-04    1.8702330e-03   -7.0744409e-04    6.6661957e-04    2.1250537e-03   -2.2368114e-03    1.8694609e-03   -2.4283929e-03    6.6631782e-04   -7.7807438e-04    7.4436935e-04    2.0031603e-03   -7.0712098e-04   -2.3384413e-03   -7.4469688e-04    7.0744409e-04    2.2368114e-03   -2.5082184e-03   -2.3379235e-03    2.0026823e-03    2.1255726e-03    7.0712098e-04    7.7807438e-04   -8.0823054e-04   -2.4289102e-03   -7.4436935e-04   -7.7840034e-04    7.4469688e-04   -2.4283929e-03    2.3379235e-03    2.1250537e-03   -2.5774005e-03   -2.5087357e-03    7.4436935e-04    2.2373286e-03   -7.7807438e-04   -8.3483913e-04    8.0823054e-04    7.7840034e-04   -8.0855686e-04   -2.5082184e-03   -2.6359393e-03    2.2368114e-03    2.4283929e-03   -8.5789990e-04    7.7807438e-04   -2.5779181e-03   -8.0823054e-04    2.3384413e-03    8.3483913e-04    8.0855686e-04   -8.3516538e-04   -2.6838349e-03    2.5082184e-03   -2.5774005e-03    2.3379235e-03   -8.7741279e-04    2.4289102e-03    8.5789990e-04   -2.6364569e-03   -8.3483913e-04    8.0823054e-04   -8.5822615e-04    8.3516538e-04   -2.6359393e-03    2.5774005e-03   -2.7210868e-03    2.4283929e-03    2.5087357e-03    8.3483913e-04   -8.9337816e-04   -2.6843522e-03   -8.5789990e-04    8.7741279e-04    8.5822615e-04   -8.7773910e-04   -2.7476856e-03   -2.6838349e-03    2.5082184e-03    2.6359393e-03   -9.0579450e-04   -8.7741279e-04   -2.7216042e-03    2.5779181e-03    8.9337816e-04    8.5789990e-04    8.7773910e-04   -8.9370407e-04   -2.7637212e-03   -2.7210868e-03    2.6838349e-03    2.5774005e-03   -8.9337816e-04    8.7741279e-04   -9.1466290e-04   -2.7482216e-03    9.0579450e-04    2.6364569e-03    8.9370407e-04   -9.0612203e-04   -2.7692015e-03   -2.7476856e-03    2.6359393e-03    2.7210868e-03   -9.0579450e-04   -9.2001446e-04   -2.7641018e-03    9.1466290e-04    2.6843522e-03    8.9337816e-04   -9.1499428e-04    9.0612203e-04   -9.2185300e-04    2.7476856e-03   -2.7637212e-03   -2.7694085e-03    2.6838349e-03    9.2001446e-04    9.0579450e-04    2.7216042e-03   -9.1466290e-04    9.1499428e-04   -9.2027575e-04   -2.7692015e-03    2.7637212e-03    9.2185300e-04    2.7210868e-03   -9.2204235e-04    2.7482216e-03   -9.2001446e-04    9.1466290e-04    9.2027575e-04    2.7692015e-03   -9.2185300e-04    2.7476856e-03    9.2001446e-04    2.7641018e-03    9.2204235e-04    2.7694085e-03    9.2185300e-04    2.7637212e-03    2.7692015e-03
            </DataArray>
            <DataArray type="Float64" Name="fx" NumberOfComponents="1" format="ascii">
               3.1974600e+02    5.8700287e+02    2.7953601e+02   -1.7030218e+00    3.1974600e+02   -2.7953601e+02   -4.4480121e-01    1.7996650e+00    4.9312180e+02   -2.8201506e+00   -3.1974600e+02   -6.4375854e-01   -1.7030218e+00    2.7953601e+02   -8.6392874e-01   -1.2880954e-01   -1.7996650e+00   -4.9312180e+02    3.0893271e+00   -5.5879444e-02   -2.7953601e+02   -4.4480121e-01    1.7030218e+00   -5.8700287e+02    1.5210313e-01   -3.7983137e-01    1.7996650e+00    1.2880954e-01   -3.0893271e+00    9.7221249e-01   -3.1974600e+02    3.2486069e-01   -6.4375854e-01    4.4480121e-01    4.0137309e-01   -1.5210313e-01   -1.2880954e-01    2.8201506e+00   -1.7996650e+00   -6.0406137e-01    1.0333438e+00   -9.7221249e-01   -5.5879444e-02    1.7030218e+00   -2.1897173e-01    6.4375854e-01    8.6392874e-01    1.2880954e-01   -1.1418083e-02    1.5210313e-01   -3.5937744e-01   -4.0137309e-01    4.0979412e-01   -1.0333438e+00    1.1956083e-01    4.4480121e-01    3.2486069e-01    5.5879444e-02    4.0137309e-01   -2.9817560e-01    3.7983137e-01   -1.5210313e-01   -8.0841258e-02    1.1418083e-02   -2.3507960e-01   -4.0979412e-01   -3.2486069e-01   -2.1897173e-01    1.5498713e-13    6.4375854e-01    8.0841258e-02   -4.0137309e-01   -1.1418083e-02    6.0406137e-01    9.2292506e-01   -4.4328423e-04    2.3507960e-01   -2.7640963e-01    2.1897173e-01    1.1956083e-01    2.9753977e-13    5.5879444e-02    6.0473848e-13   -6.6613381e-15   -8.0841258e-02    3.5937744e-01    1.1418083e-02    4.4328423e-04    2.7640963e-01   -4.9063973e-03   -1.1956083e-01    2.5446312e-13   -3.2486069e-01   -1.6431301e-14    8.0841258e-02    4.3742787e-13   -4.1744386e-13   -2.6201263e-13    2.9817560e-01   -4.4328423e-04    4.9063973e-03   -3.5527137e-15   -5.4489746e-13   -9.7699626e-15    6.3060668e-14    2.1897173e-01    4.4328423e-04    3.4083847e-13   -3.1530334e-14    2.4158453e-13   -2.8244074e-13   -9.2292506e-01   -5.5955240e-14    6.7545969e-13   -3.2418512e-13    4.7695181e-13   -1.1956083e-01   -5.8220095e-13   -4.1966430e-14    2.8688163e-13   -5.6810112e-13   -3.5083048e-13    7.0277117e-14    2.9398706e-13   -9.4435570e-13    1.1577406e-12   -1.9451107e-13    6.4348527e-13   -3.2196468e-14   -2.9398706e-13   -4.4009241e-13    3.0753178e-13    3.0575542e-13   -9.3369756e-13   -9.3547392e-13   -2.6689762e-13    8.9817043e-13   -5.7165384e-13   -5.5444538e-13    2.3092639e-13   -5.8619776e-14    1.8252067e-13    4.0367709e-13    3.6692871e-13    3.0286884e-13   -1.9850788e-13    1.4102053e-12    2.2803981e-13    5.4622973e-13   -3.6570746e-13    3.0020431e-13    3.5882408e-13    3.2285286e-13   -2.5046631e-13   -1.1636248e-12    2.4813485e-13   -3.3306691e-14    6.9055872e-13   -2.5801583e-13    4.1633363e-13    1.8661739e-12    6.6757710e-13    7.1842532e-13   -3.5971226e-13    7.3785422e-13   -6.9211303e-13    6.7224004e-13    1.9673152e-13   -8.1201712e-13   -5.0470739e-13   -3.2063241e-13    6.8700601e-13    7.3940853e-14   -3.9945824e-13   -8.1734619e-13    8.3089091e-13    1.1490808e-13   -2.9998226e-13    1.2501111e-13   -9.2370556e-14   -8.1268325e-13   -1.2095880e-12   -3.1852299e-13   -5.1192384e-13   -1.7930102e-13    1.9225177e-12   -6.1328720e-13   -2.3370195e-13   -4.9360516e-13    9.0372154e-14    2.6734170e-13    2.3769875e-13    2.1745938e-12    3.9745984e-13    1.5593082e-13    5.7387428e-13    1.1279866e-13   -2.4772961e-12    9.9545372e-13    3.3395509e-13    1.5154544e-13   -1.9406698e-13   -1.7815194e-12    4.8189230e-13    2.0108915e-12   -2.7037816e-12   -2.2271351e-12   -1.0897949e-12   -5.7115424e-13   -1.4704904e-13    3.9351161e-13   -1.3119505e-12   -2.9287683e-13    6.2372330e-13    8.0341289e-13   -5.5572213e-13    1.4274693e-13   -1.5484419e-12    1.3825607e-12   -4.7994941e-13    2.0302093e-12   -1.6206481e-13   -1.0274559e-12   -7.1970208e-13    4.1419645e-13    1.0916962e-12    9.6633812e-13    3.0267455e-14   -3.8175019e-13    2.6900704e-13    8.0957463e-13    5.4905386e-13    6.9666495e-15   -1.7612647e-13    1.0903500e-12   -1.0565715e-12   -3.7592152e-13   -8.6575191e-13   -2.2706836e-12   -1.9015345e-13    1.9271806e-12    4.2253007e-13    8.0903600e-13    4.5183302e-13   -1.4768742e-12    3.2895908e-13    2.0960733e-12   -2.8899105e-12    2.0232531e-12   -2.1389002e-12    1.4418189e-12    2.3737956e-13
            </DataArray>
            <DataArray type="Float64" Name="uy" NumberOfComponents="1" format="ascii">
               0.0000000e+00    0.0000000e+00    0.0000000e+00   -1.4553980e-04    0.0000000e+00    0.0000000e+00   -1.5195939e-04   -3.4687764e-05    0.0000000e+00    1.1734901e-19    0.0000000e+00   -1.0593596e-04    1.4553980e-04    0.0000000e+00    1.9360223e-17   -3.7133075e-05    3.4687764e-05    0.0000000e+00    3.3139542e-18   -6.6132547e-05    0.0000000e+00    1.5195939e-04    1.4553980e-04    0.0000000e+00   -2.7511935e-05    5.7653973e-17    3.4687764e-05    3.7133075e-05    2.7078913e-18    2.3062288e-17    0.0000000e+00   -4.4677596e-05    1.0593596e-04    1.5195939e-04   -1.8098031e-05    2.7511935e-05    3.7133075e-05   -1.6393275e-18   -3.4687764e-05    1.0542336e-16    5.8223582e-17    2.1727416e-17    6.6132547e-05   -1.4553980e-04   -3.1851170e-05    1.0593596e-04    1.5281798e-17   -3.7133075e-05   -1.3232609e-05    2.7511935e-05    1.5358711e-16    1.8098031e-05    1.0333740e-16    5.6253576e-17   -2.5398329e-05   -1.5195939e-04    4.4677596e-05    6.6132547e-05    1.8098031e-05    2.0263985e-16    5.1732852e-17   -2.7511935e-05   -1.0659142e-05    1.3232609e-05    1.5132481e-16    1.0081366e-16    4.4677596e-05    3.1851170e-05   -2.3642326e-05   -1.0593596e-04    1.0659142e-05   -1.8098031e-05    1.3232609e-05    9.7918279e-17    2.5147204e-16   -9.0845324e-06    1.4863213e-16    1.9991971e-16    3.1851170e-05    2.5398329e-05   -2.1661268e-05   -6.6132547e-05   -8.3251161e-06    3.0045280e-16    1.0659142e-05    1.4560038e-16   -1.3232609e-05    9.0845324e-06    1.9728427e-16    2.4898184e-16    2.5398329e-05   -1.9695355e-05   -4.4677596e-05    2.3642326e-05   -1.0659142e-05    8.3251161e-06    3.5011072e-16   -7.6665356e-06    1.9452341e-16    9.0845324e-06    2.4665096e-16    2.9797169e-16    2.1661268e-05   -1.7724622e-05    2.3642326e-05   -3.1851170e-05   -9.0845324e-06    8.3251161e-06    4.0002529e-16    7.6665356e-06   -6.9620960e-06    2.4402866e-16    3.4707313e-16    2.9566302e-16    2.1661268e-05    1.9695355e-05   -2.5398329e-05   -1.5755470e-05   -8.3251161e-06   -6.2670638e-06    6.9620960e-06    2.9421660e-16    7.6665356e-06    4.4956348e-16    3.9729800e-16    3.4504139e-16    1.9695355e-05   -1.3785999e-05    1.7724622e-05   -2.3642326e-05    3.4362803e-16   -7.6665356e-06    6.2670638e-06   -5.5705400e-06    4.9842918e-16    6.9620960e-06    4.4675879e-16    3.9467908e-16    1.5755470e-05    1.7724622e-05   -2.1661268e-05   -1.1816578e-05    5.4833821e-16   -6.9620960e-06    3.9235715e-16    6.2670638e-06   -4.8742536e-06    5.5705400e-06    4.4459944e-16    4.9663675e-16    1.3785999e-05   -9.8471155e-06   -1.9695355e-05    1.5755470e-05   -4.1779272e-06   -6.2670638e-06    5.9754061e-16    5.5705400e-06    4.4197954e-16    4.8742536e-06    4.9429518e-16    5.4679148e-16   -7.8777794e-06    1.3785999e-05    1.1816578e-05   -1.7724622e-05   -3.4816037e-06    4.9231778e-16    4.1779272e-06    6.4594780e-16    4.8742536e-06   -5.5705400e-06    5.9642104e-16    5.4476755e-16    9.8471155e-06    1.1816578e-05   -5.9091481e-06   -1.5755470e-05    5.4140033e-16   -4.8742536e-06   -2.7852243e-06    6.9602825e-16    4.1779272e-06    3.4816037e-06    5.9446710e-16    6.4469626e-16   -3.9347706e-06    7.8777794e-06   -1.3785999e-05    9.8471155e-06   -2.0898458e-06    3.4816037e-06    7.4556936e-16    5.9195697e-16    2.7852243e-06   -4.1779272e-06    6.4313803e-16    6.9422275e-16   -1.9094289e-06    5.9091481e-06    7.8777794e-06   -1.1816578e-05    2.7852243e-06   -3.4816037e-06   -1.3892603e-06    7.9415951e-16    2.0898458e-06    6.4283575e-16    6.9322939e-16    7.4322165e-16   -6.9579795e-07    3.9347706e-06   -9.8471155e-06    5.9091481e-06    2.0898458e-06   -6.7114638e-07    8.4286877e-16    1.3892604e-06    6.9165799e-16   -2.7852243e-06    7.9195844e-16    7.4147004e-16   -2.8612368e-07    3.9347706e-06    1.9094289e-06    8.9258172e-16   -7.8777794e-06    6.7114638e-07   -2.0898458e-06    7.4238224e-16    1.3892604e-06    7.9060213e-16    8.4199337e-16    6.9579801e-07    1.9094289e-06    2.8612368e-07   -5.9091481e-06    8.9147232e-16    7.9269832e-16    6.7114638e-07   -1.3892603e-06    8.4165106e-16    6.9579801e-07    2.8612368e-07   -3.9347706e-06   -6.7114638e-07    8.4208575e-16    8.9056557e-16    8.9121779e-16   -2.8612368e-07   -1.9094289e-06   -6.9579795e-07
            </DataArray>
            <DataArray type="Float64" Name="fy" NumberOfComponents="1" format="ascii">
               1.0929521e+02    2.5153213e-12    8.8368690e+01    1.6791211e+00   -1.0929521e+02   -8.8368690e+01    1.5902133e+00   -1.3094347e+00    4.3486187e-12   -1.0321483e-11   -1.0929521e+02    1.5273668e+00   -1.6791211e+00   -8.8368690e+01   -8.7316890e-12   -2.4593499e+00    1.3094347e+00    6.2919114e-12   -2.0069314e-11    3.1736708e-01    8.8368690e+01   -1.5902133e+00   -1.6791211e+00    4.2124082e-12   -1.3637981e+00   -4.7041711e-12    1.3094347e+00    2.4593499e+00   -1.9875060e-11   -1.2796736e-11    1.0929521e+02   -1.0778549e-01   -1.5273668e+00   -1.5902133e+00   -3.8517088e-01    1.3637981e+00    2.4593499e+00   -1.0150655e-11   -1.3094347e+00    3.1467537e-13   -5.1667559e-12   -1.2602031e-11   -3.1736708e-01    1.6791211e+00    2.3137011e-01   -1.5273668e+00   -8.5610859e-12   -2.4593499e+00   -7.3571868e-02    1.3637981e+00   -2.4641053e-13    3.8517088e-01    1.0211693e-12   -5.2511190e-12    1.8538900e-01    1.5902133e+00    1.0778549e-01   -3.1736708e-01    3.8517088e-01    9.7899466e-13   -4.8678561e-12   -1.3637981e+00    2.8759813e-02    7.3571868e-02   -5.9208194e-13    1.5558388e-13    1.0778549e-01   -2.3137011e-01   -6.0956448e-14    1.5273668e+00   -2.8759813e-02   -3.8517088e-01    7.3571868e-02   -3.8730130e-13    1.7313234e-13    5.5436179e-02   -6.7980344e-13   -1.8792606e-13   -2.3137011e-01   -1.8538900e-01    5.6300277e-13    3.1736708e-01   -1.8761381e-13    3.9830639e-13   -2.8759813e-02   -6.5662753e-13   -7.3571868e-02   -5.5436179e-02   -5.7572003e-13    2.5811991e-13   -1.8538900e-01   -8.9416322e-14   -1.0778549e-01   -2.6816049e-13    2.8759813e-02   -8.0679907e-13    3.3726841e-13    3.4111602e-14    3.6964876e-13   -5.5436179e-02    1.2878587e-13    1.0898227e-12   -1.9061662e-13    3.1890983e-13    2.0165293e-13    2.3137011e-01    5.5436179e-02   -1.8818280e-13    3.9841047e-13    1.4859641e-13   -7.1673917e-13    3.8802295e-14   -6.2898645e-13   -6.9393102e-13    2.1437886e-13   -1.5303384e-13    1.8538900e-01    3.5855000e-14    6.7625072e-13   -4.6147808e-13    4.0590795e-13   -3.8746784e-14    3.1952219e-13    8.6689163e-13   -3.9082279e-13   -8.9674101e-13   -2.3277040e-13   -3.8880704e-13    6.1435232e-13    1.4035301e-13   -8.8783148e-15    3.2862602e-14   -1.9382065e-13    2.6704333e-13    1.1326929e-12   -1.1326357e-13   -3.1483843e-13   -5.1483817e-13    7.7243247e-13   -1.0321882e-12    9.0186539e-14    8.2958640e-13    1.0138956e-12    6.0599442e-13    5.5897648e-13   -1.0157014e-12    1.6841042e-13    9.6912062e-13    2.8915759e-13   -4.7548770e-14   -2.0557514e-13   -5.1403326e-14    5.1326998e-14   -9.4542776e-13   -4.2256823e-13    6.7266331e-13    1.0964771e-12   -1.3861412e-12    7.7037161e-13    4.1126477e-13   -4.7052640e-14    1.4511656e-12    1.8613583e-13   -5.1737087e-13    6.3195976e-15   -3.7400985e-13    2.7416958e-13   -3.6208710e-13   -6.6270600e-13    4.5725403e-13   -8.4146579e-13    2.5970892e-13    2.9233213e-13   -2.3249701e-12   -2.2091530e-13    1.8383264e-12   -5.6830408e-13   -4.3629857e-13    1.3500191e-12   -1.1812287e-12    1.1397272e-12   -3.7050918e-13   -7.0028011e-13    5.3533566e-14   -3.3965539e-12    1.0935298e-12   -6.1487794e-13   -4.5095178e-13    8.9136164e-13    1.0034647e-12   -1.0396423e-12   -1.0263179e-12   -1.3024009e-12    1.3838930e-12    1.4869555e-12    2.8657979e-13   -7.6523163e-13   -4.7776887e-13    4.0911372e-13   -1.2688479e-12    6.7975139e-14   -5.2089583e-13    1.8230556e-12    1.9370096e-13    4.6988628e-13   -1.2449659e-12   -9.7862690e-13   -2.8945249e-13   -2.4502032e-12    1.4872773e-12    9.8468759e-13   -5.4709536e-13   -3.3227067e-13    1.2392726e-12    2.5035789e-12    2.7517485e-13   -1.1603045e-12    1.5212957e-12    6.4365180e-14   -2.0332026e-12    1.2810005e-12    1.5085502e-13   -8.6875212e-13   -1.7760064e-12    6.2102407e-13    7.7301555e-13    8.3921758e-13    2.2241002e-12   -7.2634368e-13   -5.9293022e-13    1.6841563e-13    1.2592219e-12   -1.8019067e-12    5.8754217e-13   -2.2221981e-12   -2.7845348e-13    1.1213929e-12   -1.1873766e-12   -1.3689466e-12   -1.0339542e-12   -2.2014873e-12    3.8719384e-12   -4.9547519e-13   -2.7729555e-15    3.1342377e-12   -1.3079347e-12   -4.1666150e-13    1.9266535e-12   -4.0898058e-13   -8.3844043e-13    6.8930278e-13   -2.8369342e-13
            </DataArray>
            <DataArray type="Float64" Name="uz" NumberOfComponents="1" format="ascii">