<?xml version="1.0"?>
<VTKFile type="UnstructuredGrid" version="0.1" byte_order="LittleEndian">
   <UnstructuredGrid>
      <Piece NumberOfPoints="252" NumberOfCells="120">
         <Points>
            <DataArray type="Float64" NumberOfComponents="3" format="ascii">
               0.0000000e+00     0.0000000e+00     0.0000000e+00
               0.0000000e+00     5.0000000e-02     0.0000000e+00
               0.0000000e+00     0.0000000e+00     3.3333330e-02
               5.0000000e-02     0.0000000e+00     0.0000000e+00
               0.0000000e+00     1.0000000e-01     0.0000000e+00
               0.0000000e+00     0.0000000e+00     6.6666670e-02
               1.0000000e-01     0.0000000e+00     0.0000000e+00
               5.0000000e-02     0.0000000e+00     3.3333330e-02
               0.0000000e+00     5.0000000e-02     3.3333330e-02
               5.0000000e-02     5.0000000e-02     0.0000000e+00
               0.0000000e+00     0.0000000e+00     1.0000000e-01
               1.5000000e-01     0.0000000e+00     0.0000000e+00
               5.0000000e-02     1.0000000e-01     0.0000000e+00
               0.0000000e+00     1.0000000e-01     3.3333330e-02
               1.0000000e-01     5.0000000e-02     0.0000000e+00
               1.0000000e-01     0.0000000e+00     3.3333330e-02
               5.0000000e-02     0.0000000e+00     6.6666670e-02
               0.0000000e+00     5.0000000e-02     6.6666670e-02
               5.0000000e-02     5.0000000e-02     3.3333330e-02
               2.0000000e-01     0.0000000e+00     0.0000000e+00
               0.0000000e+00     1.0000000e-01     6.6666670e-02
               1.0000000e-01     1.0000000e-01     0.0000000e+00
               5.0000000e-02     0.0000000e+00     1.0000000e-01
               0.0000000e+00     5.0000000e-02     1.0000000e-01
               1.5000000e-01     0.0000000e+00     3.3333330e-02
               1.5000000e-01     5.0000000e-02     0.0000000e+00
               5.0000000e-02     1.0000000e-01     3.3333330e-02
               1.0000000e-01     0.0000000e+00     6.6666670e-02
               5.0000000e-02     5.0000000e-02     6.6666670e-02
               1.0000000e-01     5.0000000e-02     3.3333330e-02
               0.0000000e+00     1.0000000e-01     1.0000000e-01
               2.5000000e-01     0.0000000e+00     0.0000000e+00
               1.5000000e-01     1.0000000e-01     0.0000000e+00
               1.0000000e-01     0.0000000e+00     1.0000000e-01
               2.0000000e-01     0.0000000e+00     3.3333330e-02
               1.5000000e-01     0.0000000e+00     6.6666670e-02
               1.0000000e-01     1.0000000e-01     3.3333330e-02
               5.0000000e-02     5.0000000e-02     1.0000000e-01
               5.0000000e-02     1.0000000e-01     6.6666670e-02
               2.0000000e-01     5.0000000e-02     0.0000000e+00
               1.5000000e-01     5.0000000e-02     3.3333330e-02
               1.0000000e-01     5.0000000e-02     6.6666670e-02
               2.0000000e-01     1.0000000e-01     0.0000000e+00
               5.0000000e-02     1.0000000e-01     1.0000000e-01
               3.0000000e-01     0.0000000e+00     0.0000000e+00
               1.5000000e-01     0.0000000e+00     1.0000000e-01
               1.0000000e-01     5.0000000e-02     1.0000000e-01
               1.0000000e-01     1.0000000e-01     6.6666670e-02
               2.5000000e-01     0.0000000e+00     3.3333330e-02
               1.5000000e-01     1.0000000e-01     3.3333330e-02
               2.5000000e-01     5.0000000e-02     0.0000000e+00
               2.0000000e-01     0.0000000e+00     6.6666670e-02
               2.0000000e-01     5.0000000e-02     3.3333330e-02
               1.5000000e-01     5.0000000e-02     6.6666670e-02
               3.5000000e-01     0.0000000e+00     0.0000000e+00
               1.0000000e-01     1.0000000e-01     1.0000000e-01
               2.5000000e-01     1.0000000e-01     0.0000000e+00
               2.0000000e-01     0.0000000e+00     1.0000000e-01
               2.0000000e-01     1.0000000e-01     3.3333330e-02
               3.0000000e-01     5.0000000e-02     0.0000000e+00
               1.5000000e-01     5.0000000e-02     1.0000000e-01
               1.5000000e-01     1.0000000e-01     6.6666670e-02
               3.0000000e-01     0.0000000e+00     3.3333330e-02
               2.5000000e-01     0.0000000e+00     6.6666670e-02
               2.5000000e-01     5.0000000e-02     3.3333330e-02
               2.0000000e-01     5.0000000e-02     6.6666670e-02
               2.5000000e-01     0.0000000e+00     1.0000000e-01
               3.0000000e-01     1.0000000e-01     0.0000000e+00
               4.0000000e-01     0.0000000e+00     0.0000000e+00
               1.5000000e-01     1.0000000e-01     1.0000000e-01
               3.0000000e-01     0.0000000e+00     6.6666670e-02
               2.0000000e-01     1.0000000e-01     6.6666670e-02
               2.5000000e-01     1.0000000e-01     3.3333330e-02
               2.0000000e-01     5.0000000e-02     1.0000000e-01
               3.5000000e-01     5.0000000e-02     0.0000000e+00
               3.5000000e-01     0.0000000e+00     3.3333330e-02
               2.5000000e-01     5.0000000e-02     6.6666670e-02
               3.0000000e-01     5.0000000e-02     3.3333330e-02
               3.0000000e-01     0.0000000e+00     1.0000000e-01
               3.5000000e-01     1.0000000e-01     0.0000000e+00
               4.5000000e-01     0.0000000e+00     0.0000000e+00
               2.0000000e-01     1.0000000e-01     1.0000000e-01
               4.0000000e-01     0.0000000e+00     3.3333330e-02
               4.0000000e-01     5.0000000e-02     0.0000000e+00
               3.0000000e-01     1.0000000e-01     3.3333330e-02
               2.5000000e-01     5.0000000e-02     1.0000000e-01
               2.5000000e-01     1.0000000e-01     6.6666670e-02
               3.5000000e-01     0.0000000e+00     6.6666670e-02
               3.0000000e-01     5.0000000e-02     6.6666670e-02
               3.5000000e-01     5.0000000e-02     3.3333330e-02
               3.5000000e-01     0.0000000e+00     1.0000000e-01
               5.0000000e-01     0.0000000e+00     0.0000000e+00
               2.5000000e-01     1.0000000e-01     1.0000000e-01
               4.0000000e-01     1.0000000e-01     0.0000000e+00
               3.0000000e-01     1.0000000e-01     6.6666670e-02
               4.0000000e-01     0.0000000e+00     6.6666670e-02
               4.5000000e-01     5.0000000e-02     0.0000000e+00
               4.5000000e-01     0.0000000e+00     3.3333330e-02
               3.0000000e-01     5.0000000e-02     1.0000000e-01
               3.5000000e-01     1.0000000e-01     3.3333330e-02
               3.5000000e-01     5.0000000e-02     6.6666670e-02
               4.0000000e-01     5.0000000e-02     3.3333330e-02
               4.5000000e-01     1.0000000e-01     0.0000000e+00
               5.5000000e-01     0.0000000e+00     0.0000000e+00
               4.0000000e-01     0.0000000e+00     1.0000000e-01
               3.0000000e-01     1.0000000e-01     1.0000000e-01
               3.5000000e-01     1.0000000e-01     6.6666670e-02
               4.0000000e-01     1.0000000e-01     3.3333330e-02
               5.0000000e-01     5.0000000e-02     0.0000000e+00
               4.5000000e-01     0.0000000e+00     6.6666670e-02
               5.0000000e-01     0.0000000e+00     3.3333330e-02
               3.5000000e-01     5.0000000e-02     1.0000000e-01
               4.5000000e-01     5.0000000e-02     3.3333330e-02
               4.0000000e-01     5.0000000e-02     6.6666670e-02
               4.5000000e-01     0.0000000e+00     1.0000000e-01
               5.0000000e-01     1.0000000e-01     0.0000000e+00
               3.5000000e-01     1.0000000e-01     1.0000000e-01
               6.0000000e-01     0.0000000e+00     0.0000000e+00
               4.0000000e-01     1.0000000e-01     6.6666670e-02
               5.5000000e-01     0.0000000e+00     3.3333330e-02
               5.0000000e-01     0.0000000e+00     6.6666670e-02
               4.0000000e-01     5.0000000e-02     1.0000000e-01
               4.5000000e-01     1.0000000e-01     3.3333330e-02
               5.5000000e-01     5.0000000e-02     0.0000000e+00
               5.0000000e-01     5.0000000e-02     3.3333330e-02
               4.5000000e-01     5.0000000e-02     6.6666670e-02
               5.0000000e-01     0.0000000e+00     1.0000000e-01
               6.5000000e-01     0.0000000e+00     0.0000000e+00
               5.5000000e-01     1.0000000e-01     0.0000000e+00
               4.0000000e-01     1.0000000e-01     1.0000000e-01
               4.5000000e-01     5.0000000e-02     1.0000000e-01
               4.5000000e-01     1.0000000e-01     6.6666670e-02
               5.5000000e-01     0.0000000e+00     6.6666670e-02
               6.0000000e-01     0.0000000e+00     3.3333330e-02
               6.0000000e-01     5.0000000e-02     0.0000000e+00
               5.0000000e-01     1.0000000e-01     3.3333330e-02
               5.5000000e-01     5.0000000e-02     3.3333330e-02
               5.0000000e-01     5.0000000e-02     6.6666670e-02
               6.0000000e-01     1.0000000e-01     0.0000000e+00
               5.5000000e-01     0.0000000e+00     1.0000000e-01
               4.5000000e-01     1.0000000e-01     1.0000000e-01
               7.0000000e-01     0.0000000e+00     0.0000000e+00
               6.5000000e-01     5.0000000e-02     0.0000000e+00
               5.0000000e-01     1.0000000e-01     6.6666670e-02
               5.0000000e-01     5.0000000e-02     1.0000000e-01
               5.5000000e-01     1.0000000e-01     3.3333330e-02
               6.5000000e-01     0.0000000e+00     3.3333330e-02
               6.0000000e-01     0.0000000e+00     6.6666670e-02
               5.5000000e-01     5.0000000e-02     6.6666670e-02
[...]
         <PointData>
            <DataArray type="Int32" Name="node-id" NumberOfComponents="1" format="ascii">
               1  2  3  4  5  6  7  8  9  10  11  12  13  14  15  16  17  18  19  20  21  22  23  24  25  26  27  28  29  30  31  32  33  34  35  36  37  38  39  40  41  42  43  44  45  46  47  48  49  50  51  52  53  54  55  56  57  58  59  60  61  62  63  64  65  66  67  68  69  70  71  72  73  74  75  76  77  78  79  80  81  82  83  84  85  86  87  88  89  90  91  92  93  94  95  96  97  98  99  100  101  102  103  104  105  106  107  108  109  110  111  112  113  114  115  116  117  118  119  120  121  122  123  124  125  126  127  128  129  130  131  132  133  134  135  136  137  138  139  140  141  142  143  144  145  146  147  148  149  150  151  152  153  154  155  156  157  158  159  160  161  162  163  164  165  166  167  168  169  170  171  172  173  174  175  176  177  178  179  180  181  182  183  184  185  186  187  188  189  190  191  192  193  194  195  196  197  198  199  200  201  202  203  204  205  206  207  208  209  210  211  212  213  214  215  216  217  218  219  220  221  222  223  224  225  226  227  228  229  230  231  232  233  234  235  236  237  238  239  240  241  242  243  244  245  246  247  248  249  250  251  252  
            </DataArray>
            <DataArray type="Float64" Name="ux" NumberOfComponents="1" format="ascii">
               0.0000000e+00    0.0000000e+00    0.0000000e+00   -3.2733820e-04    0.0000000e+00    0.0000000e+00   -7.2781852e-04   -1.0833512e-04    0.0000000e+00   -3.0469161e-04    0.0000000e+00   -1.0797447e-03   -3.2733820e-04    0.0000000e+00   -7.3281891e-04   -2.4365284e-04    1.0833512e-04    0.0000000e+00   -9.9557430e-05   -1.3476145e-03    0.0000000e+00   -7.2781852e-04    3.2733820e-04    0.0000000e+00   -3.5958280e-04   -1.0917435e-03   -1.0833512e-04    2.4365284e-04    9.9557430e-05   -2.4484043e-04    0.0000000e+00   -1.5527221e-03   -1.0797447e-03    7.2781852e-04   -4.4721074e-04    3.5958280e-04   -2.4365284e-04    3.0469161e-04    1.0833512e-04   -1.3547329e-03   -3.6370839e-04    2.4484043e-04   -1.3476145e-03    3.2733820e-04   -1.7241337e-03    1.0797447e-03    7.3281891e-04    2.4365284e-04   -5.1507237e-04   -3.5958280e-04   -1.5567396e-03    4.4721074e-04   -4.5061464e-04    3.6370839e-04   -1.8694609e-03    7.2781852e-04   -1.5527221e-03    1.3476145e-03   -4.4721074e-04   -1.7263391e-03    1.0917435e-03    3.5958280e-04   -5.7245500e-04    5.1507237e-04   -5.1722425e-04    4.5061464e-04    1.5527221e-03   -1.7241337e-03   -2.0026823e-03    1.0797447e-03    5.7245500e-04    4.4721074e-04   -5.1507237e-04    1.3547329e-03   -1.8702330e-03   -6.2193209e-04    5.1722425e-04   -5.7369791e-04    1.7241337e-03   -1.8694609e-03   -2.1250537e-03    1.3476145e-03   -6.6631782e-04   -2.0031603e-03   -5.7245500e-04    1.5567396e-03    5.1507237e-04    6.2193209e-04    5.7369791e-04   -6.2254356e-04    1.8694609e-03   -2.2368114e-03    1.5527221e-03   -2.0026823e-03    5.7245500e-04    6.6631782e-04   -2.1255726e-03   -7.0712098e-04    1.7263391e-03   -6.2193209e-04    6.2254356e-04   -6.6661957e-04   -2.1250537e-03   -2.3379235e-03    2.0026823e-03    1.7241337e-03    6.2193209e-04   -6.6631782e-04   -2.2373286e-03    7.0712098e-04   -7.4436935e-04    1.8702330e-03   -7.0744409e-04    6.6661957e-04    2.1250537e-03   -2.2368114e-03    1.8694609e-03   -2.4283929e-03    6.6631782e-04   -7.7807438e-04    7.4436935e-04    2.0031603e-03   -7.0712098e-04   -2.3384413e-03   -7.4469688e-04    7.0744409e-04    2.2368114e-03   -2.5082184e-03   -2.3379235e-03    2.0026823e-03    2.1255726e-03    7.0712098e-04    7.7807438e-04   -8.0823054e-04   -2.4289102e-03   -7.4436935e-04   -7.7840034e-04    7.4469688e-04   -2.4283929e-03    2.3379235e-03    2.1250537e-03   -2.5774005e-03   -2.5087357e-03    7.4436935e-04    2.2373286e-03   -7.7807438e-04   -8.3483913e-04    8.0823054e-04    7.7840034e-04   -8.0855686e-04   -2.5082184e-03   -2.6359393e-03    2.2368114e-03    2.4283929e-03   -8.5789990e-04    7.7807438e-04   -2.5779181e-03   -8.0823054e-04    2.3384413e-03    8.3483913e-04    8.0855686e-04   -8.3516538e-04   -2.6838349e-03    2.5082184e-03   -2.5774005e-03    2.3379235e-03   -8.7741279e-04    2.4289102e-03    8.5789990e-04   -2.6364569e-03   -8.3483913e-04    8.0823054e-04   -8.5822615e-04    8.3516538e-04   -2.6359393e-03    2.5774005e-03   -2.7210868e-03    2.4283929e-03    2.5087357e-03    8.3483913e-04   -8.9337816e-04   -2.6843522e-03   -8.5789990e-04    8.7741279e-04    8.5822615e-04   -8.7773910e-04   -2.7476856e-03   -2.6838349e-03    2.5082184e-03    2.6359393e-03   -9.0579450e-04   -8.7741279e-04   -2.7216042e-03    2.5779181e-03    8.9337816e-04    8.5789990e-04    8.7773910e-04   -8.9370407e-04   -2.7637212e-03   -2.7210868e-03    2.6838349e-03    2.5774005e-03   -8.9337816e-04    8.7741279e-04   -9.1466290e-04   -2.7482216e-03    9.0579450e-04    2.6364569e-03    8.9370407e-04   -9.0612203e-04   -2.7692015e-03   -2.7476856e-03    2.6359393e-03    2.7210868e-03   -9.0579450e-04   -9.2001446e-04   -2.7641018e-03    9.1466290e-04    2.6843522e-03    8.9337816e-04   -9.1499428e-04    9.0612203e-04   -9.2185300e-04    2.7476856e-03   -2.7637212e-03   -2.7694085e-03    2.6838349e-03    9.2001446e-04    9.0579450e-04    2.7216042e-03   -9.1466290e-04    9.1499428e-04   -9.2027575e-04   -2.7692015e-03    2.7637212e-03    9.2185300e-04    2.7210868e-03   -9.2204235e-04    2.7482216e-03   -9.2001446e-04    9.1466290e-04    9.2027575e-04    2.7692015e-03   -9.2185300e-04    2.7476856e-03    9.2001446e-04    2.7641018e-03    9.2204235e-04    2.7694085e-03    9.2185300e-04    2.7637212e-03    2.7692015e-03
            </DataArray>
            <DataArray type="Float64" Name="fx" NumberOfComponents="1" format="ascii">
               3.1974600e+02    5.8700287e+02    2.7953601e+02   -1.7030218e+00    3.1974600e+02   -2.7953601e+02   -4.4480121e-01    1.7996650e+00    4.9312180e+02   -2.8201506e+00   -3.1974600e+02   -6.4375854e-01   -1.7030218e+00    2.7953601e+02   -8.6392874e-01   -1.2880954e-01   -1.7996650e+00   -4.9312180e+02    3.0893271e+00   -5.5879444e-02   -2.7953601e+02   -4.4480121e-01    1.7030218e+00   -5.8700287e+02    1.5210313e-01   -3.7983137e-01    1.7996650e+00    1.2880954e-01   -3.0893271e+00    9.7221249e-01   -3.1974600e+02    3.2486069e-01   -6.4375854e-01    4.4480121e-01    4.0137309e-01   -1.5210313e-01   -1.2880954e-01    2.8201506e+00   -1.7996650e+00   -6.0406137e-01    1.0333438e+00   -9.7221249e-01   -5.5879444e-02    1.7030218e+00   -2.1897173e-01    6.4375854e-01    8.6392874e-01    1.2880954e-01   -1.1418083e-02    1.5210313e-01   -3.5937744e-01   -4.0137309e-01    4.0979412e-01   -1.0333438e+00    1.1956083e-01    4.4480121e-01    3.2486069e-01    5.5879444e-02    4.0137309e-01   -2.9817560e-01    3.7983137e-01   -1.5210313e-01   -8.0841258e-02    1.1418083e-02   -2.3507960e-01   -4.0979412e-01   -3.2486069e-01   -2.1897173e-01    2.9531932e-13    6.4375854e-01    8.0841258e-02   -4.0137309e-01   -1.1418083e-02    6.0406137e-01    9.2292506e-01   -4.4328423e-04    2.3507960e-01   -2.7640963e-01    2.1897173e-01    1.1956083e-01   -4.0589754e-13    5.5879444e-02    4.6218585e-13    1.0178525e-12   -8.0841258e-02    3.5937744e-01    1.1418083e-02    4.4328423e-04    2.7640963e-01   -4.9063973e-03   -1.1956083e-01    2.5890401e-13   -3.2486069e-01    1.2301271e-13    8.0841258e-02   -1.0880186e-14   -6.3238303e-13    2.0761171e-14    2.9817560e-01   -4.4328423e-04    4.9063973e-03    4.5952131e-13   -9.1482377e-14   -6.0929040e-13    8.7929664e-14    2.1897173e-01    4.4328423e-04   -3.1241676e-13    6.2527761e-13   -3.2374103e-13    5.7398530e-14   -9.2292506e-01   -1.6953106e-13   -1.0214052e-14    3.6770587e-13    3.0286884e-13   -1.1956083e-01    1.7652546e-13   -1.2412293e-13    1.0991208e-13   -2.1771474e-13   -3.6060044e-13    3.3972825e-14    1.6076029e-13   -3.3550940e-13   -8.2978069e-13   -2.1627145e-13   -5.1825211e-13   -1.8429702e-14   -3.0908609e-13    2.3625546e-13    8.5043084e-14   -5.7798211e-13    8.7552188e-13    1.0431656e-12   -7.8370643e-13   -1.5354384e-13   -7.7737816e-13    2.2004620e-13   -4.5430326e-13    2.6290081e-13    6.0285110e-13   -4.5186077e-13   -3.1752379e-13    8.5975671e-13   -2.6356695e-13   -1.0744738e-12    1.0604850e-12   -9.4324548e-13    1.3875567e-12   -7.6783024e-13    4.1633363e-13    1.0529355e-12    5.0759397e-13   -1.6853186e-13    2.6978419e-14   -1.9251267e-13    3.3584246e-13   -1.5587531e-13    6.2805317e-13    7.1798123e-13   -1.0256240e-12   -3.4738878e-13   -6.7679196e-13    2.4202862e-13   -1.3611334e-13   -1.5296653e-12   -3.0198066e-14    1.0670353e-12   -2.3736568e-13   -9.3181018e-13    4.5030646e-13   -3.3517633e-13    3.2862602e-13   -8.8484775e-13   -9.6145314e-14    3.0897507e-13   -7.1698203e-13   -8.5642604e-13    4.4719783e-13    7.1392892e-13    1.3533619e-12    6.3271610e-13   -1.3207213e-12    1.0373924e-12   -4.7528648e-13   -7.5195405e-13    1.7530422e-13   -2.3514524e-13    1.4499513e-12    1.0846879e-13    2.0672353e-13    8.7685414e-13    7.6982865e-13   -8.2367446e-13    1.0876855e-12   -2.6106894e-13    3.5743630e-13   -8.2214791e-13   -8.1290530e-13   -3.5471626e-13   -1.0313972e-12   -2.3187008e-13    2.0722313e-13    1.2340684e-12   -1.3499757e-12    6.2719274e-13   -1.3877788e-13   -1.4109269e-12   -2.7441382e-12    5.2710874e-13    3.1630254e-13    1.0673684e-12   -1.0127454e-12   -7.5284223e-13    9.5040642e-13   -7.1689876e-13    8.3006518e-13   -9.5856656e-13   -1.0715873e-12    1.8358648e-12    3.6424197e-12   -2.3739344e-13   -1.2650991e-13    9.9703579e-13    9.0947215e-13   -6.7101880e-13   -1.6271637e-12    1.4166168e-12   -9.3913766e-13    1.8844371e-12    2.0650703e-12   -7.0568551e-13    5.9647773e-13    6.8792194e-13   -1.0339785e-12   -5.2657878e-13   -7.0679573e-13   -5.7137628e-13   -1.1190771e-12    7.2326173e-13    5.1885579e-13    9.9948782e-13   -1.3216372e-12    5.5777605e-13   -1.2398693e-12   -4.1991410e-13   -5.7878702e-13    2.0443543e-13    1.2943813e-12   -1.5209500e-12    4.1860959e-13
            </DataArray>
            <DataArray type="Float64" Name="uy" NumberOfComponents="1" format="ascii">
               0.0000000e+00    0.0000000e+00    0.0000000e+00   -1.4553980e-04    0.0000000e+00    0.0000000e+00   -1.5195939e-04   -3.4687764e-05    0.0000000e+00   -3.0033177e-20    0.0000000e+00   -1.0593596e-04    1.4553980e-04    0.0000000e+00    2.4901295e-17   -3.7133075e-05    3.4687764e-05    0.0000000e+00    4.1589967e-18   -6.6132547e-05    0.0000000e+00    1.5195939e-04    1.4553980e-04    0.0000000e+00   -2.7511935e-05    7.4927793e-17    3.4687764e-05    3.7133075e-05    3.3895097e-18    2.9817648e-17    0.0000000e+00   -4.4677596e-05    1.0593596e-04    1.5195939e-04   -1.8098031e-05    2.7511935e-05    3.7133075e-05   -2.2570882e-18   -3.4687764e-05    1.3709646e-16    7.5676729e-17    2.8083860e-17    6.6132547e-05   -1.4553980e-04   -3.1851170e-05    1.0593596e-04    1.9587619e-17   -3.7133075e-05   -1.3232609e-05    2.7511935e-05    1.9919941e-16    1.8098031e-05    1.3425503e-16    7.3063461e-17   -2.5398329e-05   -1.5195939e-04    4.4677596e-05    6.6132547e-05    1.8098031e-05    2.6235437e-16    6.7166073e-17   -2.7511935e-05   -1.0659142e-05    1.3232609e-05    1.9618820e-16    1.3092640e-16    4.4677596e-05    3.1851170e-05   -2.3642326e-05   -1.0593596e-04    1.0659142e-05   -1.8098031e-05    1.3232609e-05    1.2714391e-16    3.2487628e-16   -9.0845324e-06    1.9266810e-16    2.5867624e-16    3.1851170e-05    2.5398329e-05   -2.1661268e-05   -6.6132547e-05   -8.3251161e-06    3.8739483e-16    1.0659142e-05    1.8868191e-16   -1.3232609e-05    9.0845324e-06    2.5517106e-16    3.2153540e-16    2.5398329e-05   -1.9695355e-05   -4.4677596e-05    2.3642326e-05   -1.0659142e-05    8.3251161e-06    4.5057468e-16   -7.6665356e-06    2.5179245e-16    9.0845324e-06    3.1831398e-16    3.8414824e-16    2.1661268e-05   -1.7724622e-05    2.3642326e-05   -3.1851170e-05   -9.0845324e-06    8.3251161e-06    5.1388134e-16    7.6665356e-06   -6.9620960e-06    3.1511126e-16    4.4676398e-16    3.8112690e-16    2.1661268e-05    1.9695355e-05   -2.5398329e-05   -1.5755470e-05   -8.3251161e-06   -6.2670638e-06    6.9620960e-06    3.7888512e-16    7.6665356e-06    5.7666538e-16    5.1056150e-16    4.4413008e-16    1.9695355e-05   -1.3785999e-05    1.7724622e-05   -2.3642326e-05    4.4215535e-16   -7.6665356e-06    6.2670638e-06   -5.5705400e-06    6.3920156e-16    6.9620960e-06    5.7346036e-16    5.0722450e-16    1.5755470e-05    1.7724622e-05   -2.1661268e-05   -1.1816578e-05    7.0166992e-16   -6.9620960e-06    5.0433040e-16    6.2670638e-06   -4.8742536e-06    5.5705400e-06    5.7050120e-16    6.3654346e-16    1.3785999e-05   -9.8471155e-06   -1.9695355e-05    1.5755470e-05   -4.1779272e-06   -6.2670638e-06    7.6433998e-16    5.5705400e-06    5.6765295e-16    4.8742536e-06    6.3371643e-16    6.9990205e-16   -7.8777794e-06    1.3785999e-05    1.1816578e-05   -1.7724622e-05   -3.4816037e-06    6.3123653e-16    4.1779272e-06    8.2596046e-16    4.8742536e-06   -5.5705400e-06    7.6277440e-16    6.9774673e-16    9.8471155e-06    1.1816578e-05   -5.9091481e-06   -1.5755470e-05    6.9373269e-16   -4.8742536e-06   -2.7852243e-06    8.8951610e-16    4.1779272e-06    3.4816037e-06    7.6054765e-16    8.2446815e-16   -3.9347706e-06    7.8777794e-06   -1.3785999e-05    9.8471155e-06   -2.0898458e-06    3.4816037e-06    9.5198012e-16    7.5750358e-16    2.7852243e-06   -4.1779272e-06    8.2225882e-16    8.8694863e-16   -1.9094289e-06    5.9091481e-06    7.8777794e-06   -1.1816578e-05    2.7852243e-06   -3.4816037e-06   -1.3892603e-06    1.0139630e-15    2.0898458e-06    8.2167903e-16    8.8576702e-16    9.4926389e-16   -6.9579795e-07    3.9347706e-06   -9.8471155e-06    5.9091481e-06    2.0898458e-06   -6.7114638e-07    1.0754103e-15    1.3892604e-06    8.8381186e-16   -2.7852243e-06    1.0111235e-15    9.4729592e-16   -2.8612368e-07    3.9347706e-06    1.9094289e-06    1.1386154e-15   -7.8777794e-06    6.7114638e-07   -2.0898458e-06    9.4788175e-16    1.3892604e-06    1.0094823e-15    1.0744224e-15    6.9579801e-07    1.9094289e-06    2.8612368e-07   -5.9091481e-06    1.1372152e-15    1.0116129e-15    6.7114638e-07   -1.3892603e-06    1.0740136e-15    6.9579801e-07    2.8612368e-07   -3.9347706e-06   -6.7114638e-07    1.0742135e-15    1.1359027e-15    1.1370761e-15   -2.8612368e-07   -1.9094289e-06   -6.9579795e-07
            </DataArray>
            <DataArray type="Float64" Name="fy" NumberOfComponents="1" format="ascii">
               1.0929521e+02    3.1511460e-12    8.8368690e+01    1.6791211e+00   -1.0929521e+02   -8.8368690e+01    1.5902133e+00   -1.3094347e+00    5.3494570e-12   -1.3888554e-11   -1.0929521e+02    1.5273668e+00   -1.6791211e+00   -8.8368690e+01   -1.1575515e-11   -2.4593499e+00    1.3094347e+00    7.9397600e-12   -2.7263143e-11    3.1736708e-01    8.8368690e+01   -1.5902133e+00   -1.6791211e+00    5.3046456e-12   -1.3637981e+00   -6.3745779e-12    1.3094347e+00    2.4593499e+00   -2.7061818e-11   -1.7130471e-11    1.0929521e+02   -1.0778549e-01   -1.5273668e+00   -1.5902133e+00   -3.8517088e-01    1.3637981e+00    2.4593499e+00   -1.3655830e-11   -1.3094347e+00    3.5676323e-13   -6.7217620e-12   -1.7060506e-11   -3.1736708e-01    1.6791211e+00    2.3137011e-01   -1.5273668e+00   -1.1657040e-11   -2.4593499e+00   -7.3571868e-02    1.3637981e+00   -7.7204215e-13    3.8517088e-01    1.2528381e-12   -6.8929029e-12    1.8538900e-01    1.5902133e+00    1.0778549e-01   -3.1736708e-01    3.8517088e-01    1.4976770e-12   -6.5516238e-12   -1.3637981e+00    2.8759813e-02    7.3571868e-02   -1.2389464e-12    2.2173929e-13    1.0778549e-01   -2.3137011e-01    3.7470027e-16    1.5273668e+00   -2.8759813e-02   -3.8517088e-01    7.3571868e-02   -4.1339848e-13   -1.6487506e-13    5.5436179e-02   -5.4843630e-13    3.5531994e-13   -2.3137011e-01   -1.8538900e-01    5.1154220e-13    3.1736708e-01   -7.9602991e-14    1.9169388e-13   -2.8759813e-02   -9.9948175e-13   -7.3571868e-02   -5.5436179e-02    6.3019034e-14    1.2955054e-12   -1.8538900e-01    3.8785468e-13   -1.0778549e-01   -5.8521764e-13    2.8759813e-02   -3.8254122e-13    6.8590966e-15   -6.2913563e-13    3.3011441e-13   -5.5436179e-02   -2.5015406e-13    6.3000993e-13   -5.8600520e-13    2.1988487e-13    1.6252451e-13    2.3137011e-01    5.5436179e-02   -1.2981283e-13    1.5811311e-13    3.8400533e-13   -1.5622434e-12    7.1771755e-13    1.2666430e-12   -5.5174615e-13   -1.1304326e-13   -4.7926940e-14    1.8538900e-01   -4.1995747e-13   -6.1554234e-13   -1.9875490e-12    6.0742383e-13    4.9681440e-13    2.2511160e-13   -5.7792139e-13    1.2231882e-13   -1.2955331e-12    1.4470022e-13    6.5585037e-13   -8.3698846e-13    6.2681110e-13    9.4081340e-13   -6.7199718e-13   -5.5486171e-13   -1.9503149e-13    2.4786943e-13    4.3411802e-13    7.8699200e-13    7.6660900e-14   -4.3733246e-13    7.1337727e-13    1.4800140e-13   -8.0898482e-13   -1.7738554e-12    1.4608453e-13   -1.3469781e-13    1.5140666e-14    6.3819436e-13   -9.4202424e-13    5.8604510e-13   -3.3373304e-13   -6.8038804e-13    9.1256863e-14   -3.5368930e-13    2.4158800e-13    8.7010260e-13    7.7190337e-13   -1.0951240e-12    6.0668831e-13    1.7267611e-12    8.7833907e-13    1.2412016e-12   -2.6652291e-14    7.3035848e-13   -2.2187113e-15   -1.3552545e-12   -6.5103825e-13   -1.4110831e-12    6.0704393e-13   -1.1096575e-12   -9.7075820e-13   -4.4834275e-13   -1.0349846e-12    4.9082266e-13    7.9578705e-13    9.5657857e-13    5.6689896e-13    3.1808237e-13    3.9284548e-13   -4.0187298e-13    9.9334777e-13   -8.5138147e-13   -1.5978538e-14    1.0992769e-12    3.4013764e-13    6.1483804e-13    1.7757497e-12    1.5461469e-12   -3.4161736e-13   -4.4866715e-13    1.3661294e-12   -2.0376045e-12    9.5862554e-13    5.0148774e-13   -1.0870992e-13   -9.5527058e-13    7.9865108e-13    7.0021419e-13    7.3331965e-14   -5.5833463e-13    3.8844795e-13    3.9193822e-13    2.8252400e-13    1.6177233e-12   -1.0599941e-12   -1.0201250e-12   -3.8158539e-13   -3.1905078e-13   -1.4107222e-12   -1.6506067e-13   -4.1645160e-13   -5.8560963e-13    1.2038912e-12   -1.6178291e-12   -7.5435318e-13    3.8746090e-13   -6.4773534e-13    1.7678567e-14    1.3409178e-12    4.7639670e-13   -1.3386098e-12   -1.3902282e-12    3.4985834e-12    9.7650794e-13   -6.1359078e-13    8.9777144e-13   -1.0602047e-12    4.1320593e-13    1.6155072e-12    2.5178167e-13   -1.2667003e-12   -1.4526436e-12    6.9060079e-13   -3.3107198e-14   -7.9613508e-14   -1.9778970e-13   -4.2228374e-13   -3.4677469e-13    1.4224698e-12    1.3702737e-12   -2.3787196e-12   -6.8264708e-13    1.9983425e-12   -6.5677650e-13   -7.9468376e-13   -6.6759098e-13    2.4706513e-12   -1.6870897e-12   -7.5442690e-13    1.1130831e-13    2.0502202e-12   -1.5065102e-12   -2.1467030e-13
            </DataArray>
            <DataArray type="Float64" Name="uz" NumberOfComponents="1" format="ascii">