<?xml version="1.0"?>
<VTKFile type="UnstructuredGrid" version="0.1" byte_order="LittleEndian">
   <UnstructuredGrid>
      <Piece NumberOfPoints="252" NumberOfCells="120">
         <Points>
            <DataArray type="Float64" NumberOfComponents="3" format="ascii">
               0.0000000e+00     0.0000000e+00     0.0000000e+00
               0.0000000e+00     5.0000000e-02     0.0000000e+00
               0.0000000e+00     0.0000000e+00     3.3333330e-02
               5.0000000e-02     0.0000000e+00     0.0000000e+00
               0.0000000e+00     1.0000000e-01     0.0000000e+00
               0.0000000e+00     0.0000000e+00     6.6666670e-02
               1.0000000e-01     0.0000000e+00     0.0000000e+00
               5.0000000e-02     0.0000000e+00     3.3333330e-02
               0.0000000e+00     5.0000000e-02     3.3333330e-02
               5.0000000e-02     5.0000000e-02     0.0000000e+00
               0.0000000e+00     0.0000000e+00     1.0000000e-01
               1.5000000e-01     0.0000000e+00     0.0000000e+00
               5.0000000e-02     1.0000000e-01     0.0000000e+00
               0.0000000e+00     1.0000000e-01     3.3333330e-02
               1.0000000e-01     5.0000000e-02     0.0000000e+00
               1.0000000e-01     0.0000000e+00     3.3333330e-02
               5.0000000e-02     0.0000000e+00     6.6666670e-02
               0.0000000e+00     5.0000000e-02     6.6666670e-02
               5.0000000e-02     5.0000000e-02     3.3333330e-02
               2.0000000e-01     0.0000000e+00     0.0000000e+00
               0.0000000e+00     1.0000000e-01     6.6666670e-02
               1.0000000e-01     1.0000000e-01     0.0000000e+00
               5.0000000e-02     0.0000000e+00     1.0000000e-01
               0.0000000e+00     5.0000000e-02     1.0000000e-01
               1.5000000e-01     0.0000000e+00     3.3333330e-02
               1.5000000e-01     5.0000000e-02     0.0000000e+00
               5.0000000e-02     1.0000000e-01     3.3333330e-02
               1.0000000e-01     0.0000000e+00     6.6666670e-02
               5.0000000e-02     5.0000000e-02     6.6666670e-02
               1.0000000e-01     5.0000000e-02     3.3333330e-02
               0.0000000e+00     1.0000000e-01     1.0000000e-01
               2.5000000e-01     0.0000000e+00     0.0000000e+00
               1.5000000e-01     1.0000000e-01     0.0000000e+00
               1.0000000e-01     0.0000000e+00     1.0000000e-01
               2.0000000e-01     0.0000000e+00     3.3333330e-02
               1.5000000e-01     0.0000000e+00     6.6666670e-02
               1.0000000e-01     1.0000000e-01     3.3333330e-02
               5.0000000e-02     5.0000000e-02     1.0000000e-01
               5.0000000e-02     1.0000000e-01     6.6666670e-02
               2.0000000e-01     5.0000000e-02     0.0000000e+00
               1.5000000e-01     5.0000000e-02     3.3333330e-02
               1.0000000e-01     5.0000000e-02     6.6666670e-02
               2.0000000e-01     1.0000000e-01     0.0000000e+00
               5.0000000e-02     1.0000000e-01     1.0000000e-01
               3.0000000e-01     0.0000000e+00     0.0000000e+00
               1.5000000e-01     0.0000000e+00     1.0000000e-01
               1.0000000e-01     5.0000000e-02     1.0000000e-01
               1.0000000e-01     1.0000000e-01     6.6666670e-02
               2.5000000e-01     0.0000000e+00     3.3333330e-02
               1.5000000e-01     1.0000000e-01     3.3333330e-02
               2.5000000e-01     5.0000000e-02     0.0000000e+00
               2.0000000e-01     0.0000000e+00     6.6666670e-02
               2.0000000e-01     5.0000000e-02     3.3333330e-02
               1.5000000e-01     5.0000000e-02     6.6666670e-02
               3.5000000e-01     0.0000000e+00     0.0000000e+00
               1.0000000e-01     1.0000000e-01     1.0000000e-01
               2.5000000e-01     1.0000000e-01     0.0000000e+00
               2.0000000e-01     0.0000000e+00     1.0000000e-01
               2.0000000e-01     1.0000000e-01     3.3333330e-02
               3.0000000e-01     5.0000000e-02     0.0000000e+00
               1.5000000e-01     5.0000000e-02     1.0000000e-01
               1.5000000e-01     1.0000000e-01     6.6666670e-02
               3.0000000e-01     0.0000000e+00     3.3333330e-02
               2.5000000e-01     0.0000000e+00     6.6666670e-02
               2.5000000e-01     5.0000000e-02     3.3333330e-02
               2.0000000e-01     5.0000000e-02     6.6666670e-02
               2.5000000e-01     0.0000000e+00     1.0000000e-01
               3.0000000e-01     1.0000000e-01     0.0000000e+00
               4.0000000e-01     0.0000000e+00     0.0000000e+00
               1.5000000e-01     1.0000000e-01     1.0000000e-01
               3.0000000e-01     0.0000000e+00     6.6666670e-02
               2.0000000e-01     1.0000000e-01     6.6666670e-02
               2.5000000e-01     1.0000000e-01     3.3333330e-02
               2.0000000e-01     5.0000000e-02     1.0000000e-01
               3.5000000e-01     5.0000000e-02     0.0000000e+00
               3.5000000e-01     0.0000000e+00     3.3333330e-02
               2.5000000e-01     5.0000000e-02     6.6666670e-02
               3.0000000e-01     5.0000000e-02     3.3333330e-02
               3.0000000e-01     0.0000000e+00     1.0000000e-01
               3.5000000e-01     1.0000000e-01     0.0000000e+00
               4.5000000e-01     0.0000000e+00     0.0000000e+00
               2.0000000e-01     1.0000000e-01     1.0000000e-01
               4.0000000e-01     0.0000000e+00     3.3333330e-02
               4.0000000e-01     5.0000000e-02     0.0000000e+00
               3.0000000e-01     1.0000000e-01     3.3333330e-02
               2.5000000e-01     5.0000000e-02     1.0000000e-01
               2.5000000e-01     1.0000000e-01     6.6666670e-02
               3.5000000e-01     0.0000000e+00     6.6666670e-02
               3.0000000e-01     5.0000000e-02     6.6666670e-02
               3.5000000e-01     5.0000000e-02     3.3333330e-02
               3.5000000e-01     0.0000000e+00     1.0000000e-01
               5.0000000e-01     0.0000000e+00     0.0000000e+00
               2.5000000e-01     1.0000000e-01     1.0000000e-01
               4.0000000e-01     1.0000000e-01     0.0000000e+00
               3.0000000e-01     1.0000000e-01     6.6666670e-02
               4.0000000e-01     0.0000000e+00     6.6666670e-02
               4.5000000e-01     5.0000000e-02     0.0000000e+00
               4.5000000e-01     0.0000000e+00     3.3333330e-02
               3.0000000e-01     5.0000000e-02     1.0000000e-01
               3.5000000e-01     1.0000000e-01     3.3333330e-02
               3.5000000e-01     5.0000000e-02     6.6666670e-02
               4.0000000e-01     5.0000000e-02     3.3333330e-02
               4.5000000e-01     1.0000000e-01     0.0000000e+00
               5.5000000e-01     0.0000000e+00     0.0000000e+00
               4.0000000e-01     0.0000000e+00     1.0000000e-01
               3.0000000e-01     1.0000000e-01     1.0000000e-01
               3.5000000e-01     1.0000000e-01     6.6666670e-02
               4.0000000e-01     1.0000000e-01     3.3333330e-02
               5.0000000e-01     5.0000000e-02     0.0000000e+00
               4.5000000e-01     0.0000000e+00     6.6666670e-02
               5.0000000e-01     0.0000000e+00     3.3333330e-02
               3.5000000e-01     5.0000000e-02     1.0000000e-01
               4.5000000e-01     5.0000000e-02     3.3333330e-02
               4.0000000e-01     5.0000000e-02     6.6666670e-02
               4.5000000e-01     0.0000000e+00     1.0000000e-01
               5.0000000e-01     1.0000000e-01     0.0000000e+00
               3.5000000e-01     1.0000000e-01     1.0000000e-01
               6.0000000e-01     0.0000000e+00     0.0000000e+00
               4.0000000e-01     1.0000000e-01     6.6666670e-02
               5.5000000e-01     0.0000000e+00     3.3333330e-02
               5.0000000e-01     0.0000000e+00     6.6666670e-02
               4.0000000e-01     5.0000000e-02     1.0000000e-01
               4.5000000e-01     1.0000000e-01     3.3333330e-02
               5.5000000e-01     5.0000000e-02     0.0000000e+00
               5.0000000e-01     5.0000000e-02     3.3333330e-02
               4.5000000e-01     5.0000000e-02     6.6666670e-02
               5.0000000e-01     0.0000000e+00     1.0000000e-01
               6.5000000e-01     0.0000000e+00     0.0000000e+00
               5.5000000e-01     1.0000000e-01     0.0000000e+00
               4.0000000e-01     1.0000000e-01     1.0000000e-01
               4.5000000e-01     5.0000000e-02     1.0000000e-01
               4.5000000e-01     1.0000000e-01     6.6666670e-02
               5.5000000e-01     0.0000000e+00     6.6666670e-02
               6.0000000e-01     0.0000000e+00     3.3333330e-02
               6.0000000e-01     5.0000000e-02     0.0000000e+00
               5.0000000e-01     1.0000000e-01     3.3333330e-02
               5.5000000e-01     5.0000000e-02     3.3333330e-02
               5.0000000e-01     5.0000000e-02     6.6666670e-02
               6.0000000e-01     1.0000000e-01     0.0000000e+00
               5.5000000e-01     0.0000000e+00     1.0000000e-01
               4.5000000e-01     1.0000000e-01     1.0000000e-01
               7.0000000e-01     0.0000000e+00     0.0000000e+00
               6.5000000e-01     5.0000000e-02     0.0000000e+00
               5.0000000e-01     1.0000000e-01     6.6666670e-02
               5.0000000e-01     5.0000000e-02     1.0000000e-01
               5.5000000e-01     1.0000000e-01     3.3333330e-02
               6.5000000e-01     0.0000000e+00     3.3333330e-02
               6.0000000e-01     0.0000000e+00     6.6666670e-02
               5.5000000e-01     5.0000000e-02     6.6666670e-02
[...]
         <PointData>
            <DataArray type="Int32" Name="node-id" NumberOfComponents="1" format="ascii">
               1  2  3  4  5  6  7  8  9  10  11  12  13  14  15  16  17  18  19  20  21  22  23  24  25  26  27  28  29  30  31  32  33  34  35  36  37  38  39  40  41  42  43  44  45  46  47  48  49  50  51  52  53  54  55  56  57  58  59  60  61  62  63  64  65  66  67  68  69  70  71  72  73  74  75  76  77  78  79  80  81  82  83  84  85  86  87  88  89  90  91  92  93  94  95  96  97  98  99  100  101  102  103  104  105  106  107  108  109  110  111  112  113  114  115  116  117  118  119  120  121  122  123  124  125  126  127  128  129  130  131  132  133  134  135  136  137  138  139  140  141  142  143  144  145  146  147  148  149  150  151  152  153  154  155  156  157  158  159  160  161  162  163  164  165  166  167  168  169  170  171  172  173  174  175  176  177  178  179  180  181  182  183  184  185  186  187  188  189  190  191  192  193  194  195  196  197  198  199  200  201  202  203  204  205  206  207  208  209  210  211  212  213  214  215  216  217  218  219  220  221  222  223  224  225  226  227  228  229  230  231  232  233  234  235  236  237  238  239  240  241  242  243  244  245  246  247  248  249  250  251  252  
            </DataArray>
            <DataArray type="Float64" Name="ux" NumberOfComponents="1" format="ascii">
               0.0000000e+00    0.0000000e+00    0.0000000e+00   -3.2737336e-04    0.0000000e+00    0.0000000e+00   -7.2704459e-04   -1.0864506e-04    0.0000000e+00   -3.0453393e-04    0.0000000e+00   -1.0784999e-03   -3.2737336e-04    0.0000000e+00   -7.3215790e-04   -2.4335248e-04    1.0864506e-04    0.0000000e+00   -9.9622834e-05   -1.3472044e-03    0.0000000e+00   -7.2704459e-04    3.2737336e-04    0.0000000e+00   -3.5922491e-04   -1.0908418e-03   -1.0864506e-04    2.4335248e-04    9.9622834e-05   -2.4466577e-04    0.0000000e+00   -1.5526318e-03   -1.0784999e-03    7.2704459e-04   -4.4716799e-04    3.5922491e-04   -2.4335248e-04    3.0453393e-04    1.0864506e-04   -1.3543002e-03   -3.6352681e-04    2.4466577e-04   -1.3472044e-03    3.2737336e-04   -1.7239464e-03    1.0784999e-03    7.3215790e-04    2.4335248e-04   -5.1500840e-04   -3.5922491e-04   -1.5563932e-03    4.4716799e-04   -4.5058207e-04    3.6352681e-04   -1.8694663e-03    7.2704459e-04   -1.5526318e-03    1.3472044e-03   -4.4716799e-04   -1.7261809e-03    1.0908418e-03    3.5922491e-04   -5.7241874e-04    5.1500840e-04   -5.1716744e-04    4.5058207e-04    1.5526318e-03   -1.7239464e-03   -2.0027626e-03    1.0784999e-03    5.7241874e-04    4.4716799e-04   -5.1500840e-04    1.3543002e-03   -1.8703933e-03   -6.2193244e-04    5.1716744e-04   -5.7364639e-04    1.7239464e-03   -1.8694663e-03   -2.1251417e-03    1.3472044e-03   -6.6634140e-04   -2.0032469e-03   -5.7241874e-04    1.5563932e-03    5.1500840e-04    6.2193244e-04    5.7364639e-04   -6.2255305e-04    1.8694663e-03   -2.2369009e-03    1.5526318e-03   -2.0027626e-03    5.7241874e-04    6.6634140e-04   -2.1256583e-03   -7.0715073e-04    1.7261809e-03   -6.2193244e-04    6.2255305e-04   -6.6665804e-04   -2.1251417e-03   -2.3380157e-03    2.0027626e-03    1.7239464e-03    6.2193244e-04   -6.6634140e-04   -2.2374182e-03    7.0715073e-04   -7.4439915e-04    1.8703933e-03   -7.0747134e-04    6.6665804e-04    2.1251417e-03   -2.2369009e-03    1.8694663e-03   -2.4284872e-03    6.6634140e-04   -7.7810505e-04    7.4439915e-04    2.0032469e-03   -7.0715073e-04   -2.3385335e-03   -7.4472674e-04    7.0747134e-04    2.2369009e-03   -2.5083150e-03   -2.3380157e-03    2.0027626e-03    2.1256583e-03    7.0715073e-04    7.7810505e-04   -8.0826203e-04   -2.4290048e-03   -7.4439915e-04   -7.7843107e-04    7.4472674e-04   -2.4284872e-03    2.3380157e-03    2.1251417e-03   -2.5774990e-03   -2.5088324e-03    7.4439915e-04    2.2374182e-03   -7.7810505e-04   -8.3487132e-04    8.0826203e-04    7.7843107e-04   -8.0858835e-04   -2.5083150e-03   -2.6360392e-03    2.2369009e-03    2.4284872e-03   -8.5793267e-04    7.7810505e-04   -2.5780164e-03   -8.0826203e-04    2.3385335e-03    8.3487132e-04    8.0858835e-04   -8.3519757e-04   -2.6839359e-03    2.5083150e-03   -2.5774990e-03    2.3380157e-03   -8.7744603e-04    2.4290048e-03    8.5793267e-04   -2.6365567e-03   -8.3487132e-04    8.0826203e-04   -8.5825892e-04    8.3519757e-04   -2.6360392e-03    2.5774990e-03   -2.7211891e-03    2.4284872e-03    2.5088324e-03    8.3487132e-04   -8.9341181e-04   -2.6844533e-03   -8.5793267e-04    8.7744603e-04    8.5825892e-04   -8.7777234e-04   -2.7477883e-03   -2.6839359e-03    2.5083150e-03    2.6360392e-03   -9.0582849e-04   -8.7744603e-04   -2.7217064e-03    2.5780164e-03    8.9341181e-04    8.5793267e-04    8.7777234e-04   -8.9373771e-04   -2.7638243e-03   -2.7211891e-03    2.6839359e-03    2.5774990e-03   -8.9341181e-04    8.7744603e-04   -9.1469713e-04   -2.7483245e-03    9.0582849e-04    2.6365567e-03    8.9373771e-04   -9.0615603e-04   -2.7693049e-03   -2.7477883e-03    2.6360392e-03    2.7211891e-03   -9.0582849e-04   -9.2004880e-04   -2.7642052e-03    9.1469713e-04    2.6844533e-03    8.9341181e-04   -9.1502850e-04    9.0615603e-04   -9.2188740e-04    2.7477883e-03   -2.7638243e-03   -2.7695119e-03    2.6839359e-03    9.2004880e-04    9.0582849e-04    2.7217064e-03   -9.1469713e-04    9.1502850e-04   -9.2031009e-04   -2.7693049e-03    2.7638243e-03    9.2188740e-04    2.7211891e-03   -9.2207681e-04    2.7483245e-03   -9.2004880e-04    9.1469713e-04    9.2031009e-04    2.7693049e-03   -9.2188740e-04    2.7477883e-03    9.2004880e-04    2.7642052e-03    9.2207681e-04    2.7695119e-03    9.2188740e-04    2.7638243e-03    2.7693049e-03
            </DataArray>
            <DataArray type="Float64" Name="fx" NumberOfComponents="1" format="ascii">
               3.2084515e+02    5.8754675e+02    2.7960019e+02   -2.9162907e-03    3.2084515e+02   -2.7960019e+02   -2.9143577e-03    2.8975711e-03    4.9188477e+02   -1.9593241e-03   -3.2084515e+02    7.2398840e-04   -2.9162907e-03    2.7960019e+02   -7.1406309e-03    4.0117241e-03   -2.8975711e-03   -4.9188477e+02    1.9954199e-03    3.6203733e-04   -2.7960019e+02   -2.9143577e-03    2.9162907e-03   -5.8754675e+02    6.2503801e-05   -2.6743193e-04    2.8975711e-03   -4.0117241e-03   -1.9954199e-03    5.7755350e-03   -3.2084515e+02   -1.8070243e-06    7.2398840e-04    2.9143577e-03   -2.5087205e-04   -6.2503801e-05    4.0117241e-03    1.9593241e-03   -2.8975711e-03    3.5914575e-04   -2.9022701e-03   -5.7755350e-03    3.6203733e-04    2.9162907e-03    1.3242723e-06   -7.2398840e-04    7.1406309e-03   -4.0117241e-03   -6.4027954e-06    6.2503801e-05    1.3485652e-05    2.5087205e-04   -5.8662973e-04    2.9022701e-03    1.1556271e-07    2.9143577e-03   -1.8070245e-06   -3.6203733e-04   -2.5087205e-04   -1.1979319e-05    2.6743193e-04   -6.2503801e-05    9.0951193e-07    6.4027959e-06    2.4109009e-05    5.8662973e-04    1.8070247e-06    1.3242723e-06    4.4408921e-15   -7.2398840e-04   -9.0951210e-07    2.5087205e-04   -6.4027954e-06   -3.5914575e-04   -1.2060035e-06    1.4695181e-07   -2.4109009e-05    7.6291867e-06   -1.3242723e-06    1.1556268e-07   -8.2156504e-14   -3.6203733e-04   -1.2212453e-15    8.9261931e-14    9.0951232e-07   -1.3485653e-05    6.4027954e-06   -1.4695163e-07   -7.6291867e-06    1.0707951e-07   -1.1556268e-07   -3.7747583e-14    1.8070244e-06   -2.6201263e-14   -9.0951210e-07   -1.9406698e-13   -1.6298074e-13   -5.2069460e-14    1.1979319e-05    1.4695166e-07   -1.0707944e-07    9.1815444e-14    2.5757174e-14   -1.0658141e-14    4.7961635e-14   -1.3242724e-06   -1.4695173e-07    2.8976821e-14    6.5281114e-14    2.9864999e-13   -1.8518520e-13    1.2060033e-06   -2.6645353e-13   -2.5157654e-13   -1.4654944e-14    1.9984014e-14   -1.1556260e-07   -8.5709218e-14   -2.4424907e-15    1.4210855e-13   -1.9773072e-13    1.0880186e-13   -5.1070259e-14    5.0182081e-14   -1.3000712e-13    1.6986412e-13    4.5297099e-14    2.0694557e-13    9.8365760e-14    2.5757174e-14   -1.0125234e-13   -4.8849813e-14    3.1907810e-13    1.7597035e-13    4.0634163e-14    1.3999912e-13    2.5057734e-13   -3.3473224e-13    4.6851412e-14    2.3092639e-14    6.2616579e-14   -9.9920072e-15    8.7485574e-14    3.9190873e-14   -1.2878587e-14   -2.0705659e-13   -8.0713214e-14   -3.4106051e-13    1.4011015e-13    7.1165296e-14   -7.7715612e-14    4.9960036e-14   -2.2204460e-15   -3.9079850e-14   -2.3459013e-13    8.0602192e-14   -5.5511151e-15    1.4810375e-13    4.5297099e-14    1.0325074e-13   -2.7200464e-14   -4.5152770e-13    1.4666046e-13    5.7731597e-14    4.4408921e-15    1.8429702e-14    2.5834890e-13   -6.1284311e-14    1.7141844e-13    3.4194869e-14   -3.6737280e-13   -4.9960036e-14   -2.8377301e-13    4.1955328e-13   -9.1482377e-14    3.0642155e-14   -1.3866686e-13   -8.2378548e-14   -2.4247271e-13    4.1366910e-13   -3.1963321e-13    7.2175599e-13   -2.7366998e-13   -2.4036328e-14    1.5831780e-13    4.1072701e-13   -5.8397731e-14    5.0792703e-13    6.4392935e-14   -2.5091040e-13    3.4583447e-13    3.0553338e-13   -2.6489921e-13    7.5495166e-14   -1.5265567e-13   -1.1501911e-13   -1.1285417e-13   -2.1221913e-13    2.4172331e-13   -1.7319479e-14    3.5638159e-14   -1.0147438e-13    1.8535173e-13   -2.2359892e-13   -3.6071146e-13   -4.9621418e-13    2.7236546e-13   -2.1027624e-13   -6.7768013e-13    1.1141088e-13   -6.7263903e-14   -4.1000536e-13    1.0014212e-13    8.5931262e-14   -2.5601743e-13   -3.1724623e-13    1.2309598e-13   -6.3872518e-14   -2.5879299e-13   -1.6386892e-13    1.4444002e-13    4.2063575e-13    1.7597035e-13    1.4327428e-13    1.1582402e-13    3.1322861e-13   -6.5725203e-14   -2.2636060e-13   -3.8635761e-14    1.0635937e-13    6.7335026e-13    2.7654962e-13   -2.4727442e-13    1.4262896e-14    6.5836225e-14    1.9462210e-13    1.4732660e-13    1.0128010e-13   -1.2506662e-13   -2.5471292e-13    1.4166446e-13   -3.1943198e-13   -9.0492717e-14   -1.6697754e-13   -2.0533575e-13   -3.3001379e-14    3.9182546e-13   -2.0861091e-13    6.7480743e-16   -9.6866959e-15    2.8338443e-14    1.1082801e-13
            </DataArray>
            <DataArray type="Float64" Name="uy" NumberOfComponents="1" format="ascii">
               0.0000000e+00    0.0000000e+00    0.0000000e+00   -1.4481826e-04    0.0000000e+00    0.0000000e+00   -1.5104369e-04   -3.4794681e-05    0.0000000e+00    1.5385854e-19    0.0000000e+00   -1.0571908e-04    1.4481826e-04    0.0000000e+00    4.1898606e-19   -3.7060738e-05    3.4794681e-05    0.0000000e+00    4.4024859e-20   -6.6056185e-05    0.0000000e+00    1.5104369e-04    1.4481826e-04    0.0000000e+00   -2.7517917e-05    2.7739766e-19    3.4794681e-05    3.7060738e-05   -6.8747860e-20    1.0815171e-19    0.0000000e+00   -4.4602573e-05    1.0571908e-04    1.5104369e-04   -1.8091907e-05    2.7517917e-05    3.7060738e-05   -1.7873003e-19   -3.4794681e-05    1.5743002e-19   -8.8431695e-20   -1.5529668e-19    6.6056185e-05   -1.4481826e-04   -3.2023516e-05    1.0571908e-04   -3.7434790e-19   -3.7060738e-05   -1.3233755e-05    2.7517917e-05   -5.0647245e-20    1.8091907e-05   -3.3522712e-19   -4.0247302e-19   -2.5480336e-05   -1.5104369e-04    4.4602573e-05    6.6056185e-05    1.8091907e-05   -4.5017320e-19   -6.1128218e-19   -2.7517917e-05   -1.0677175e-05    1.3233755e-05   -5.4495522e-19   -8.0336438e-19    4.4602573e-05    3.2023516e-05   -2.3628896e-05   -1.0571908e-04    1.0677175e-05   -1.8091907e-05    1.3233755e-05   -1.2262429e-18   -1.0084106e-18   -9.0973363e-06   -1.1426067e-18   -9.6601843e-19    3.2023516e-05    2.5480336e-05   -2.1662441e-05   -6.6056185e-05   -8.3241803e-06   -1.6749424e-18    1.0677175e-05   -1.6756785e-18   -1.3233755e-05    9.0973363e-06   -1.5112634e-18   -1.4421298e-18    2.5480336e-05   -1.9695852e-05   -4.4602573e-05    2.3628896e-05   -1.0677175e-05    8.3241803e-06   -1.8322700e-18   -7.6656343e-06   -2.2185871e-18    9.0973363e-06   -1.8903075e-18   -2.2847998e-18    2.1662441e-05   -1.7725111e-05    2.3628896e-05   -3.2023516e-05   -9.0973363e-06    8.3241803e-06   -1.8037155e-18    7.6656343e-06   -6.9626076e-06   -2.4890746e-18   -3.1891543e-18   -2.7475642e-18    2.1662441e-05    1.9695852e-05   -2.5480336e-05   -1.5755868e-05   -8.3241803e-06   -6.2671697e-06    6.9626076e-06   -2.3929607e-18    7.6656343e-06   -2.3956642e-18   -3.0923973e-18   -3.4548367e-18    1.9695852e-05   -1.3786358e-05    1.7725111e-05   -2.3628896e-05   -3.1179163e-18   -7.6656343e-06    6.2671697e-06   -5.5706928e-06   -3.6735761e-18    6.9626076e-06   -3.9744515e-18   -4.1920289e-18    1.5755868e-05    1.7725111e-05   -2.1662441e-05   -1.1816885e-05   -4.1391998e-18   -6.9626076e-06   -4.8101152e-18    6.2671697e-06   -4.8743786e-06    5.5706928e-06   -4.6935800e-18   -4.4183964e-18    1.3786358e-05   -9.8473711e-06   -1.9695852e-05    1.5755868e-05   -4.1780354e-06   -6.2671697e-06   -5.0975460e-18    5.5706928e-06   -5.6506813e-18    4.8743786e-06   -5.4367889e-18   -4.7501889e-18   -7.8779831e-06    1.3786358e-05    1.1816885e-05   -1.7725111e-05   -3.4816940e-06   -6.0740580e-18    4.1780354e-06   -6.8933100e-18    4.8743786e-06   -5.5706928e-06   -5.4337896e-18   -5.3851199e-18    9.8473711e-06    1.1816885e-05   -5.9093009e-06   -1.5755868e-05   -7.8029097e-18   -4.8743786e-06   -2.7852964e-06   -7.1270783e-18    4.1780354e-06    3.4816940e-06   -6.5817732e-18   -7.5815098e-18   -3.9348724e-06    7.8779831e-06   -1.3786358e-05    9.8473711e-06   -2.0898999e-06    3.4816940e-06   -8.1713268e-18   -8.0790797e-18    2.7852964e-06   -4.1780354e-06   -8.5032165e-18   -8.6527410e-18   -1.9094784e-06    5.9093009e-06    7.8779831e-06   -1.1816885e-05    2.7852964e-06   -3.4816940e-06   -1.3892964e-06   -9.9475789e-18    2.0898999e-06   -8.2796478e-18   -9.0117738e-18   -1.0088669e-17   -6.9581603e-07    3.9348724e-06   -9.8473711e-06    5.9093009e-06    2.0898999e-06   -6.7116372e-07   -1.1666615e-17    1.3892964e-06   -1.0354563e-17   -2.7852964e-06   -1.2307960e-17   -1.1815197e-17   -2.8613110e-07    3.9348724e-06    1.9094784e-06   -1.2182924e-17   -7.8779831e-06    6.7116372e-07   -2.0898999e-06   -1.0606629e-17    1.3892964e-06   -1.3075181e-17   -1.2634141e-17    6.9581603e-07    1.9094784e-06    2.8613110e-07   -5.9093009e-06   -1.3424426e-17   -1.1057799e-17    6.7116372e-07   -1.3892964e-06   -1.3304670e-17    6.9581603e-07    2.8613110e-07   -3.9348724e-06   -6.7116372e-07   -1.1992946e-17   -1.4906068e-17   -1.3924332e-17   -2.8613110e-07   -1.9094784e-06   -6.9581603e-07
            </DataArray>
            <DataArray type="Float64" Name="fy" NumberOfComponents="1" format="ascii">
               1.1011026e+02   -1.0791368e-13    8.9066513e+01    1.0369458e-03   -1.1011026e+02   -8.9066513e+01    4.3846644e-03   -1.5391746e-03   -1.6808777e-13    7.6796208e-14   -1.1011026e+02    1.4687038e-03   -1.0369458e-03   -8.9066513e+01    1.8982732e-13    6.5510708e-04    1.5391746e-03    1.6414647e-13   -8.5549623e-14    1.0259605e-04    8.9066513e+01   -4.3846644e-03   -1.0369458e-03    1.5254464e-13   -1.2707044e-03    1.4557452e-13    1.5391746e-03   -6.5510708e-04   -5.6260552e-14    2.0455859e-14    1.1011026e+02   -8.5852224e-07   -1.4687038e-03   -4.3846644e-03   -3.1174891e-04    1.2707044e-03   -6.5510708e-04    9.1985447e-14   -1.5391746e-03    9.7154923e-14    2.3148150e-14    2.4258373e-14   -1.0259605e-04    1.0369458e-03   -9.9104113e-07   -1.4687038e-03    1.7915877e-13    6.5510708e-04    3.1586421e-06    1.2707044e-03   -2.4678176e-14    3.1174891e-04   -8.7541085e-14   -1.6653345e-15   -6.9624923e-07    4.3846644e-03    8.5852230e-07   -1.0259605e-04    3.1174891e-04   -1.3387902e-13    1.5233648e-13   -1.2707044e-03    1.3049134e-06   -3.1586421e-06   -1.6626978e-13    4.3340331e-14    8.5852224e-07    9.9104113e-07    8.5387426e-14    1.4687038e-03   -1.3049133e-06   -3.1174891e-04   -3.1586421e-06    1.0416668e-13    8.4612872e-14   -8.8556057e-08    6.3185568e-14    1.4176160e-14    9.9104102e-07    6.9624917e-07    4.7505402e-14    1.0259605e-04    3.0986325e-13   -2.0399828e-13   -1.3049133e-06    1.1157741e-14    3.1586421e-06    8.8556227e-08    6.0132455e-14    2.0298346e-13    6.9624912e-07    4.6846207e-14   -8.5852236e-07   -3.2000878e-14    1.3049133e-06    3.6776138e-15   -1.0043702e-13   -6.8132999e-14   -7.5266182e-14    8.8556071e-08   -1.4010321e-13    4.9425741e-14   -8.7261795e-14    1.5646338e-13   -3.5021682e-14   -9.9104102e-07   -8.8556263e-08    7.1054274e-15   -4.0540488e-14   -2.4299313e-13   -4.4041160e-14    2.2683244e-14    1.6560711e-13   -1.5022705e-13    7.6454468e-14   -7.1456729e-14   -6.9624917e-07    2.4719810e-15   -1.1618484e-13   -7.5286999e-15   -3.7341658e-14   -1.2335619e-14    1.3769541e-13   -1.8400212e-14    2.1266669e-13   -1.9572538e-13   -6.8712397e-15    5.0022486e-14   -2.0375368e-13    1.0051118e-13    2.4859281e-13    9.0830121e-15   -2.6268224e-13   -3.0482561e-14    1.4504196e-13   -8.3426321e-14   -1.7690710e-13   -2.4186902e-13   -2.8483292e-13    3.4208747e-14    1.0911411e-15    2.0457594e-13   -8.8684268e-14    6.4497019e-14    2.6024322e-14    7.9186657e-14    2.9708527e-13   -2.0145691e-13   -1.1165374e-13   -2.5982688e-13   -6.6138067e-14    2.0743476e-13    1.6949636e-13    2.4922425e-13    1.9744623e-14    1.0045437e-13   -2.4349099e-13    5.4865834e-14    2.3181283e-13    2.4943242e-13   -4.3798298e-14   -3.5139947e-13    1.6308482e-13   -2.5018182e-13    2.8190818e-13    2.1013746e-13   -2.5828298e-13    4.5784557e-14   -5.1472715e-14   -3.9061462e-13    6.6120720e-14    3.2155875e-13   -9.1707891e-14   -1.4168181e-13    7.1146214e-14    1.9375647e-13    4.4912164e-13   -3.1643091e-14   -1.3320942e-14    3.9121484e-13   -9.5062846e-15   -1.3197603e-13    3.7220227e-13    2.0688833e-13   -2.2785246e-13    2.8483639e-13   -9.0613281e-14   -3.1495639e-14   -7.6593246e-14   -2.5439373e-13   -3.6030900e-13    7.5293244e-13    1.1729159e-13   -3.7759726e-14    2.4988692e-14   -1.0244930e-13   -2.7356589e-14   -2.9159314e-13   -1.6705040e-13   -6.3845283e-13   -3.3214924e-13   -3.2272796e-13    7.4974749e-15   -2.9518749e-13    5.1509838e-13   -2.5229992e-13   -8.1494707e-14   -1.9981065e-13    3.9515266e-13    1.9575661e-13    1.2684470e-13   -1.1235977e-13   -1.1305019e-13   -2.9409461e-13    1.4932500e-13   -1.9879931e-14    1.3164816e-13    1.9711966e-13    2.0621699e-13    3.8609740e-13    8.3450608e-14    2.2382790e-13   -1.3088922e-13   -3.3535674e-13    8.7273938e-14    1.0835386e-13   -4.1295092e-13    1.6545879e-13    4.2332132e-13   -7.2695322e-14   -3.4885463e-13    1.4702692e-13    7.6424631e-13    1.9679795e-13   -3.8118120e-13   -3.5615001e-13   -1.1567657e-13    1.3462538e-13    1.2653073e-14   -4.3971337e-13    2.8451633e-13   -2.5422373e-15    1.5219928e-15   -2.3873178e-13   -1.4971878e-13    3.5607628e-13   -4.1457983e-13   -4.4689831e-15    1.0544885e-13    2.3148150e-13   -1.2054940e-13   -8.9433886e-14
            </DataArray>
            <DataArray type="Float64" Name="uz" NumberOfComponents="1" format="ascii">