<?xml version="1.0"?>
<VTKFile type="UnstructuredGrid" version="0.1" byte_order="LittleEndian">
   <UnstructuredGrid>
      <Piece NumberOfPoints="252" NumberOfCells="120">
         <Points>
            <DataArray type="Float64" NumberOfComponents="3" format="ascii">
               0.0000000e+00     0.0000000e+00     0.0000000e+00
               0.0000000e+00     5.0000000e-02     0.0000000e+00
               0.0000000e+00     0.0000000e+00     3.3333330e-02
               5.0000000e-02     0.0000000e+00     0.0000000e+00
               0.0000000e+00     1.0000000e-01     0.0000000e+00
               0.0000000e+00     0.0000000e+00     6.6666670e-02
               1.0000000e-01     0.0000000e+00     0.0000000e+00
               5.0000000e-02     0.0000000e+00     3.3333330e-02
               0.0000000e+00     5.0000000e-02     3.3333330e-02
               5.0000000e-02     5.0000000e-02     0.0000000e+00
               0.0000000e+00     0.0000000e+00     1.0000000e-01
               1.5000000e-01     0.0000000e+00     0.0000000e+00
               5.0000000e-02     1.0000000e-01     0.0000000e+00
               0.0000000e+00     1.0000000e-01     3.3333330e-02
               1.0000000e-01     5.0000000e-02     0.0000000e+00
               1.0000000e-01     0.0000000e+00     3.3333330e-02
               5.0000000e-02     0.0000000e+00     6.6666670e-02
               0.0000000e+00     5.0000000e-02     6.6666670e-02
               5.0000000e-02     5.0000000e-02     3.3333330e-02
               2.0000000e-01     0.0000000e+00     0.0000000e+00
               0.0000000e+00     1.0000000e-01     6.6666670e-02
               1.0000000e-01     1.0000000e-01     0.0000000e+00
               5.0000000e-02     0.0000000e+00     1.0000000e-01
               0.0000000e+00     5.0000000e-02     1.0000000e-01
               1.5000000e-01     0.0000000e+00     3.3333330e-02
               1.5000000e-01     5.0000000e-02     0.0000000e+00
               5.0000000e-02     1.0000000e-01     3.3333330e-02
               1.0000000e-01     0.0000000e+00     6.6666670e-02
               5.0000000e-02     5.0000000e-02     6.6666670e-02
               1.0000000e-01     5.0000000e-02     3.3333330e-02
               0.0000000e+00     1.0000000e-01     1.0000000e-01
               2.5000000e-01     0.0000000e+00     0.0000000e+00
               1.5000000e-01     1.0000000e-01     0.0000000e+00
               1.0000000e-01     0.0000000e+00     1.0000000e-01
               2.0000000e-01     0.0000000e+00     3.3333330e-02
               1.5000000e-01     0.0000000e+00     6.6666670e-02
               1.0000000e-01     1.0000000e-01     3.3333330e-02
               5.0000000e-02     5.0000000e-02     1.0000000e-01
               5.0000000e-02     1.0000000e-01     6.6666670e-02
               2.0000000e-01     5.0000000e-02     0.0000000e+00
               1.5000000e-01     5.0000000e-02     3.3333330e-02
               1.0000000e-01     5.0000000e-02     6.6666670e-02
               2.0000000e-01     1.0000000e-01     0.0000000e+00
               5.0000000e-02     1.0000000e-01     1.0000000e-01
               3.0000000e-01     0.0000000e+00     0.0000000e+00
               1.5000000e-01     0.0000000e+00     1.0000000e-01
               1.0000000e-01     5.0000000e-02     1.0000000e-01
               1.0000000e-01     1.0000000e-01     6.6666670e-02
               2.5000000e-01     0.0000000e+00     3.3333330e-02
               1.5000000e-01     1.0000000e-01     3.3333330e-02
               2.5000000e-01     5.0000000e-02     0.0000000e+00
               2.0000000e-01     0.0000000e+00     6.6666670e-02
               2.0000000e-01     5.0000000e-02     3.3333330e-02
               1.5000000e-01     5.0000000e-02     6.6666670e-02
               3.5000000e-01     0.0000000e+00     0.0000000e+00
               1.0000000e-01     1.0000000e-01     1.0000000e-01
               2.5000000e-01     1.0000000e-01     0.0000000e+00
               2.0000000e-01     0.0000000e+00     1.0000000e-01
               2.0000000e-01     1.0000000e-01     3.3333330e-02
               3.0000000e-01     5.0000000e-02     0.0000000e+00
               1.5000000e-01     5.0000000e-02     1.0000000e-01
               1.5000000e-01     1.0000000e-01     6.6666670e-02
               3.0000000e-01     0.0000000e+00     3.3333330e-02
               2.5000000e-01     0.0000000e+00     6.6666670e-02
               2.5000000e-01     5.0000000e-02     3.3333330e-02
               2.0000000e-01     5.0000000e-02     6.6666670e-02
               2.5000000e-01     0.0000000e+00     1.0000000e-01
               3.0000000e-01     1.0000000e-01     0.0000000e+00
               4.0000000e-01     0.0000000e+00     0.0000000e+00
               1.5000000e-01     1.0000000e-01     1.0000000e-01
               3.0000000e-01     0.0000000e+00     6.6666670e-02
               2.0000000e-01     1.0000000e-01     6.6666670e-02
               2.5000000e-01     1.0000000e-01     3.3333330e-02
               2.0000000e-01     5.0000000e-02     1.0000000e-01
               3.5000000e-01     5.0000000e-02     0.0000000e+00
               3.5000000e-01     0.0000000e+00     3.3333330e-02
               2.5000000e-01     5.0000000e-02     6.6666670e-02
               3.0000000e-01     5.0000000e-02     3.3333330e-02
               3.0000000e-01     0.0000000e+00     1.0000000e-01
               3.5000000e-01     1.0000000e-01     0.0000000e+00
               4.5000000e-01     0.0000000e+00     0.0000000e+00
               2.0000000e-01     1.0000000e-01     1.0000000e-01
               4.0000000e-01     0.0000000e+00     3.3333330e-02
               4.0000000e-01     5.0000000e-02     0.0000000e+00
               3.0000000e-01     1.0000000e-01     3.3333330e-02
               2.5000000e-01     5.0000000e-02     1.0000000e-01
               2.5000000e-01     1.0000000e-01     6.6666670e-02
               3.5000000e-01     0.0000000e+00     6.6666670e-02
               3.0000000e-01     5.0000000e-02     6.6666670e-02
               3.5000000e-01     5.0000000e-02     3.3333330e-02
               3.5000000e-01     0.0000000e+00     1.0000000e-01
               5.0000000e-01     0.0000000e+00     0.0000000e+00
               2.5000000e-01     1.0000000e-01     1.0000000e-01
               4.0000000e-01     1.0000000e-01     0.0000000e+00
               3.0000000e-01     1.0000000e-01     6.6666670e-02
               4.0000000e-01     0.0000000e+00     6.6666670e-02
               4.5000000e-01     5.0000000e-02     0.0000000e+00
               4.5000000e-01     0.0000000e+00     3.3333330e-02
               3.0000000e-01     5.0000000e-02     1.0000000e-01
               3.5000000e-01     1.0000000e-01     3.3333330e-02
               3.5000000e-01     5.0000000e-02     6.6666670e-02
               4.0000000e-01     5.0000000e-02     3.3333330e-02
               4.5000000e-01     1.0000000e-01     0.0000000e+00
               5.5000000e-01     0.0000000e+00     0.0000000e+00
               4.0000000e-01     0.0000000e+00     1.0000000e-01
               3.0000000e-01     1.0000000e-01     1.0000000e-01
               3.5000000e-01     1.0000000e-01     6.6666670e-02
               4.0000000e-01     1.0000000e-01     3.3333330e-02
               5.0000000e-01     5.0000000e-02     0.0000000e+00
               4.5000000e-01     0.0000000e+00     6.6666670e-02
               5.0000000e-01     0.0000000e+00     3.3333330e-02
               3.5000000e-01     5.0000000e-02     1.0000000e-01
               4.5000000e-01     5.0000000e-02     3.3333330e-02
               4.0000000e-01     5.0000000e-02     6.6666670e-02
               4.5000000e-01     0.0000000e+00     1.0000000e-01
               5.0000000e-01     1.0000000e-01     0.0000000e+00
               3.5000000e-01     1.0000000e-01     1.0000000e-01
               6.0000000e-01     0.0000000e+00     0.0000000e+00
               4.0000000e-01     1.0000000e-01     6.6666670e-02
               5.5000000e-01     0.0000000e+00     3.3333330e-02
               5.0000000e-01     0.0000000e+00     6.6666670e-02
               4.0000000e-01     5.0000000e-02     1.0000000e-01
               4.5000000e-01     1.0000000e-01     3.3333330e-02
               5.5000000e-01     5.0000000e-02     0.0000000e+00
               5.0000000e-01     5.0000000e-02     3.3333330e-02
               4.5000000e-01     5.0000000e-02     6.6666670e-02
               5.0000000e-01     0.0000000e+00     1.0000000e-01
               6.5000000e-01     0.0000000e+00     0.0000000e+00
               5.5000000e-01     1.0000000e-01     0.0000000e+00
               4.0000000e-01     1.0000000e-01     1.0000000e-01
               4.5000000e-01     5.0000000e-02     1.0000000e-01
               4.5000000e-01     1.0000000e-01     6.6666670e-02
               5.5000000e-01     0.0000000e+00     6.6666670e-02
               6.0000000e-01     0.0000000e+00     3.3333330e-02
               6.0000000e-01     5.0000000e-02     0.0000000e+00
               5.0000000e-01     1.0000000e-01     3.3333330e-02
               5.5000000e-01     5.0000000e-02     3.3333330e-02
               5.0000000e-01     5.0000000e-02     6.6666670e-02
               6.0000000e-01     1.0000000e-01     0.0000000e+00
               5.5000000e-01     0.0000000e+00     1.0000000e-01
               4.5000000e-01     1.0000000e-01     1.0000000e-01
               7.0000000e-01     0.0000000e+00     0.0000000e+00
               6.5000000e-01     5.0000000e-02     0.0000000e+00
               5.0000000e-01     1.0000000e-01     6.6666670e-02
               5.0000000e-01     5.0000000e-02     1.0000000e-01
               5.5000000e-01     1.0000000e-01     3.3333330e-02
               6.5000000e-01     0.0000000e+00     3.3333330e-02
               6.0000000e-01     0.0000000e+00     6.6666670e-02
               5.5000000e-01     5.0000000e-02     6.6666670e-02
[...]
         <PointData>
            <DataArray type="Int32" Name="node-id" NumberOfComponents="1" format="ascii">
               1  2  3  4  5  6  7  8  9  10  11  12  13  14  15  16  17  18  19  20  21  22  23  24  25  26  27  28  29  30  31  32  33  34  35  36  37  38  39  40  41  42  43  44  45  46  47  48  49  50  51  52  53  54  55  56  57  58  59  60  61  62  63  64  65  66  67  68  69  70  71  72  73  74  75  76  77  78  79  80  81  82  83  84  85  86  87  88  89  90  91  92  93  94  95  96  97  98  99  100  101  102  103  104  105  106  107  108  109  110  111  112  113  114  115  116  117  118  119  120  121  122  123  124  125  126  127  128  129  130  131  132  133  134  135  136  137  138  139  140  141  142  143  144  145  146  147  148  149  150  151  152  153  154  155  156  157  158  159  160  161  162  163  164  165  166  167  168  169  170  171  172  173  174  175  176  177  178  179  180  181  182  183  184  185  186  187  188  189  190  191  192  193  194  195  196  197  198  199  200  201  202  203  204  205  206  207  208  209  210  211  212  213  214  215  216  217  218  219  220  221  222  223  224  225  226  227  228  229  230  231  232  233  234  235  236  237  238  239  240  241  242  243  244  245  246  247  248  249  250  251  252  
            </DataArray>
            <DataArray type="Float64" Name="ux" NumberOfComponents="1" format="ascii">
               0.0000000e+00    0.0000000e+00    0.0000000e+00   -3.2747013e-04    0.0000000e+00    0.0000000e+00   -7.2698557e-04   -1.0866635e-04    0.0000000e+00   -3.0459045e-04    0.0000000e+00   -1.0783595e-03   -3.2747013e-04    0.0000000e+00   -7.3212874e-04   -2.4333423e-04    1.0866635e-04    0.0000000e+00   -9.9575336e-05   -1.3470650e-03    0.0000000e+00   -7.2698557e-04    3.2747013e-04    0.0000000e+00   -3.5916385e-04   -1.0906584e-03   -1.0866635e-04    2.4333423e-04    9.9575336e-05   -2.4464302e-04    0.0000000e+00   -1.5525528e-03   -1.0783595e-03    7.2698557e-04   -4.4712372e-04    3.5916385e-04   -2.4333423e-04    3.0459045e-04    1.0866635e-04   -1.3541738e-03   -3.6350661e-04    2.4464302e-04   -1.3470650e-03    3.2747013e-04   -1.7239093e-03    1.0783595e-03    7.3212874e-04    2.4333423e-04   -5.1498396e-04   -3.5916385e-04   -1.5563212e-03    4.4712372e-04   -4.5055820e-04    3.6350661e-04   -1.8694481e-03    7.2698557e-04   -1.5525528e-03    1.3470650e-03   -4.4712372e-04   -1.7261436e-03    1.0906584e-03    3.5916385e-04   -5.7240628e-04    5.1498396e-04   -5.1715004e-04    4.5055820e-04    1.5525528e-03   -1.7239093e-03   -2.0027563e-03    1.0783595e-03    5.7240628e-04    4.4712372e-04   -5.1498396e-04    1.3541738e-03   -1.8703762e-03   -6.2192616e-04    5.1715004e-04   -5.7363574e-04    1.7239093e-03   -1.8694481e-03   -2.1251456e-03    1.3470650e-03   -6.6633913e-04   -2.0032406e-03   -5.7240628e-04    1.5563212e-03    5.1498396e-04    6.2192616e-04    5.7363574e-04   -6.2254723e-04    1.8694481e-03   -2.2369144e-03    1.5525528e-03   -2.0027563e-03    5.7240628e-04    6.6633913e-04   -2.1256623e-03   -7.0715195e-04    1.7261436e-03   -6.2192616e-04    6.2254723e-04   -6.6665589e-04   -2.1251456e-03   -2.3380376e-03    2.0027563e-03    1.7239093e-03    6.2192616e-04   -6.6633913e-04   -2.2374317e-03    7.0715195e-04   -7.4440351e-04    1.8703762e-03   -7.0747262e-04    6.6665589e-04    2.1251456e-03   -2.2369144e-03    1.8694481e-03   -2.4285167e-03    6.6633913e-04   -7.7811221e-04    7.4440351e-04    2.0032406e-03   -7.0715195e-04   -2.3385554e-03   -7.4473117e-04    7.0747262e-04    2.2369144e-03   -2.5083511e-03   -2.3380376e-03    2.0027563e-03    2.1256623e-03    7.0715195e-04    7.7811221e-04   -8.0827181e-04   -2.4290343e-03   -7.4440351e-04   -7.7843829e-04    7.4473117e-04   -2.4285167e-03    2.3380376e-03    2.1251456e-03   -2.5775412e-03   -2.5088687e-03    7.4440351e-04    2.2374317e-03   -7.7811221e-04   -8.3488331e-04    8.0827181e-04    7.7843829e-04   -8.0859812e-04   -2.5083511e-03   -2.6360862e-03    2.2369144e-03    2.4285167e-03   -8.5794658e-04    7.7811221e-04   -2.5780585e-03   -8.0827181e-04    2.3385554e-03    8.3488331e-04    8.0859812e-04   -8.3520956e-04   -2.6839869e-03    2.5083511e-03   -2.5775412e-03    2.3380376e-03   -8.7746163e-04    2.4290343e-03    8.5794658e-04   -2.6366038e-03   -8.3488331e-04    8.0827181e-04   -8.5827283e-04    8.3520956e-04   -2.6360862e-03    2.5775412e-03   -2.7212433e-03    2.4285167e-03    2.5088687e-03    8.3488331e-04   -8.9342875e-04   -2.6845043e-03   -8.5794658e-04    8.7746163e-04    8.5827283e-04   -8.7778794e-04   -2.7478449e-03   -2.6839869e-03    2.5083511e-03    2.6360862e-03   -9.0584642e-04   -8.7746163e-04   -2.7217607e-03    2.5780585e-03    8.9342875e-04    8.5794658e-04    8.7778794e-04   -8.9375471e-04   -2.7638820e-03   -2.7212433e-03    2.6839869e-03    2.5775412e-03   -8.9342875e-04    8.7746163e-04   -9.1471581e-04   -2.7483809e-03    9.0584642e-04    2.6366038e-03    8.9375471e-04   -9.0617401e-04   -2.7693631e-03   -2.7478449e-03    2.6360862e-03    2.7212433e-03   -9.0584642e-04   -9.2006795e-04   -2.7642630e-03    9.1471581e-04    2.6845043e-03    8.9342875e-04   -9.1504725e-04    9.0617401e-04   -9.2190673e-04    2.7478449e-03   -2.7638820e-03   -2.7695701e-03    2.6839869e-03    9.2006795e-04    9.0584642e-04    2.7217607e-03   -9.1471581e-04    9.1504725e-04   -9.2032930e-04   -2.7693631e-03    2.7638820e-03    9.2190673e-04    2.7212433e-03   -9.2209614e-04    2.7483809e-03   -9.2006795e-04    9.1471581e-04    9.2032930e-04    2.7693631e-03   -9.2190673e-04    2.7478449e-03    9.2006795e-04    2.7642630e-03    9.2209614e-04    2.7695701e-03    9.2190673e-04    2.7638820e-03    2.7693631e-03
            </DataArray>
            <DataArray type="Float64" Name="fx" NumberOfComponents="1" format="ascii">
               3.2096408e+02    5.8751428e+02    2.7964221e+02   -2.0228673e-03    3.2096408e+02   -2.7964221e+02   -1.3119914e-03    1.6315191e-03    4.9158081e+02   -1.7035841e-03   -3.2096408e+02    4.7527812e-04   -2.0228673e-03    2.7964221e+02   -2.9578398e-03    1.1934475e-03   -1.6315191e-03   -4.9158081e+02    2.8644975e-03    5.4680556e-04   -2.7964221e+02   -1.3119914e-03    2.0228673e-03   -5.8751428e+02   -2.4098578e-04    6.4484851e-04    1.6315191e-03   -1.1934475e-03   -2.8644975e-03    3.0389605e-03   -3.2096408e+02    7.9699865e-05    4.7527812e-04    1.3119914e-03   -2.8415080e-04    2.4098578e-04    1.1934475e-03    1.7035841e-03   -1.6315191e-03    5.8186398e-04   -2.0696244e-03   -3.0389605e-03    5.4680556e-04    2.0228673e-03    2.6130936e-06   -4.7527812e-04    2.9578398e-03   -1.1934475e-03   -4.6367131e-05   -2.4098578e-04    4.0628835e-05    2.8415080e-04   -1.3463844e-03    2.0696244e-03    5.1865616e-08    1.3119914e-03    7.9699865e-05   -5.4680556e-04   -2.8415080e-04   -9.6914910e-06   -6.4484851e-04    2.4098578e-04    9.5416647e-07    4.6367131e-05   -1.2199194e-04    1.3463844e-03   -7.9699865e-05    2.6130938e-06   -2.4424907e-15   -4.7527812e-04   -9.5416647e-07    2.8415080e-04   -4.6367131e-05   -5.8186398e-04   -4.5409319e-08   -3.6705817e-08    1.2199194e-04    2.4444552e-07   -2.6130936e-06    5.1865531e-08   -1.4654944e-14   -5.4680556e-04    1.5876189e-14    1.8318680e-14    9.5416647e-07   -4.0628835e-05    4.6367131e-05    3.6705874e-08   -2.4444552e-07   -2.2351692e-08   -5.1865552e-08    2.2426505e-14   -7.9699865e-05    2.2315483e-14   -9.5416647e-07   -3.5194070e-14   -2.5535130e-14    3.0919711e-14    9.6914910e-06   -3.6705870e-08    2.2351699e-08    1.2045920e-14   -7.2053474e-14   -1.8873791e-14   -3.1752379e-14   -2.6130936e-06    3.6705845e-08    7.8714812e-14    3.6304293e-14   -5.5400129e-14    8.9428465e-14    4.5409323e-08    2.6645353e-14   -4.1355808e-14    2.0095037e-14   -1.3544721e-14   -5.1865555e-08    9.9920072e-16    1.3489210e-14   -2.1288526e-14   -2.8310687e-15   -4.2854609e-14    5.0459636e-14    2.6423308e-14   -3.9190873e-14    5.4956040e-14   -1.9539925e-14   -3.0309089e-14    5.2180482e-15    6.3282712e-15   -1.7763568e-14   -4.2632564e-14   -6.0118577e-14   -1.7236212e-14    6.2505556e-14   -3.2973624e-14   -1.0055845e-13    1.7541524e-14    4.0856207e-14    2.8976821e-14   -5.5844218e-14   -6.5891737e-14    1.8984814e-14   -9.9920072e-16   -3.4638958e-14   -4.7600812e-14    8.4376950e-15    1.1601831e-14   -5.3623772e-14   -3.4999781e-14    7.6605389e-14    7.2775119e-14    7.9269924e-14    2.6090241e-14    6.1894934e-14   -7.4440454e-14   -4.7684079e-14   -2.6589841e-14    2.0650148e-14   -4.0412118e-14    3.7747583e-14   -1.0058621e-13    1.5154544e-13    6.3615779e-14    1.4765966e-14   -1.2212453e-15   -3.8496983e-14   -5.9729999e-14    8.5764729e-14   -2.7422509e-14   -6.0784711e-15    3.6970427e-14   -5.1042504e-14    2.1205260e-13   -2.9143354e-14   -1.0491608e-14    7.7354789e-14   -1.1746160e-13   -5.6510352e-14    1.7788548e-13   -2.1488367e-13    1.2467805e-13   -1.2376211e-13    6.6752159e-14    2.1746493e-13    8.4460217e-14   -3.6720627e-14    4.2910120e-14   -1.0902390e-13   -3.9024339e-14   -1.4174772e-13    4.2327253e-14    4.3215431e-14    1.3600232e-14   -1.5695778e-14    1.0494383e-13    3.9551695e-14   -2.1807556e-13   -9.0899510e-15    6.3754557e-14   -1.5321078e-14   -5.7842620e-14   -3.9024339e-14    4.1827652e-14    1.5669410e-13   -7.3274720e-15   -1.2884138e-13    7.2164497e-16   -1.7703894e-13   -2.5628111e-13    5.5210610e-14   -1.8066104e-13   -4.8294702e-15    1.7374990e-14    3.9301895e-14   -5.4581339e-14   -6.2588823e-14    3.1988301e-15    5.9952043e-15   -2.4313884e-14    1.2778667e-13   -1.2655155e-13   -6.5017436e-15   -1.0214052e-14    6.6183170e-14    2.4237123e-14   -5.3568261e-14   -4.4565046e-14   -6.1985139e-14   -2.3703262e-14   -1.0672019e-14    1.7618199e-13    6.8528516e-14   -3.2075037e-14    4.3826054e-14    7.3885342e-14   -7.3163697e-14   -2.0136670e-14    2.4544256e-13    3.4791614e-14    1.5110829e-13   -2.9014985e-14    2.0819717e-14    6.7168493e-15    2.2215563e-13   -1.8685400e-13   -9.3786090e-14    6.2769234e-14   -7.4933115e-14    9.6880837e-14   -1.1210477e-13    9.5427138e-15
            </DataArray>
            <DataArray type="Float64" Name="uy" NumberOfComponents="1" format="ascii">
               0.0000000e+00    0.0000000e+00    0.0000000e+00   -1.4462550e-04    0.0000000e+00    0.0000000e+00   -1.5073677e-04   -3.4877608e-05    0.0000000e+00    1.6749947e-19    0.0000000e+00   -1.0556271e-04    1.4462550e-04    0.0000000e+00    5.7717468e-19   -3.7150701e-05    3.4877608e-05    0.0000000e+00    6.2851283e-20   -6.6042085e-05    0.0000000e+00    1.5073677e-04    1.4462550e-04    0.0000000e+00   -2.7565246e-05    8.0691350e-19    3.4877608e-05    3.7150701e-05   -6.1066680e-20    2.8755990e-19    0.0000000e+00   -4.4599041e-05    1.0556271e-04    1.5073677e-04   -1.8100520e-05    2.7565246e-05    3.7150701e-05   -2.1847908e-19   -3.4877608e-05    1.1535324e-18    4.0397025e-19    5.2226956e-21    6.6042085e-05   -1.4462550e-04   -3.2032887e-05    1.0556271e-04   -3.2587856e-19   -3.7150701e-05   -1.3235963e-05    2.7565246e-05    1.4585480e-18    1.8100520e-05    6.0835810e-19    4.7284122e-20   -2.5483598e-05   -1.5073677e-04    4.4599041e-05    6.6042085e-05    1.8100520e-05    1.5655284e-18   -2.6406319e-19   -2.7565246e-05   -1.0679033e-05    1.3235963e-05    8.5357900e-19    7.3503915e-20    4.4599041e-05    3.2032887e-05   -2.3630788e-05   -1.0556271e-04    1.0679033e-05   -1.8100520e-05    1.3235963e-05   -4.7425170e-19    1.5275774e-18   -9.0983967e-06    2.2493217e-19    8.9950360e-19    3.2032887e-05    2.5483598e-05   -2.1664266e-05   -6.6042085e-05   -8.3248560e-06    1.2892225e-18    1.0679033e-05   -3.9226404e-19   -1.3235963e-05    9.0983967e-06    2.8798965e-19    8.5765477e-19    2.5483598e-05   -1.9697512e-05   -4.4599041e-05    2.3630788e-05   -1.0679033e-05    8.3248560e-06    1.5290000e-18   -7.6662745e-06   -3.5934985e-19    9.0983967e-06    3.7628914e-19    5.4996576e-19    2.1664266e-05   -1.7726605e-05    2.3630788e-05   -3.2032887e-05   -9.0983967e-06    8.3248560e-06    2.0943458e-18    7.6662745e-06   -6.9631960e-06   -2.6815355e-19    1.5754027e-19   -1.2531194e-20    2.1664266e-05    1.9697512e-05   -2.5483598e-05   -1.5757196e-05   -8.3248560e-06   -6.2676977e-06    6.9631960e-06    2.6241672e-19    7.6662745e-06    1.8257582e-18    6.0247100e-19   -3.3841567e-19    1.9697512e-05   -1.3787519e-05    1.7726605e-05   -2.3630788e-05   -4.3727934e-20   -7.6662745e-06    6.2676977e-06   -5.5711625e-06    1.0530818e-18    6.9631960e-06    2.6256620e-19   -5.5555089e-19    1.5757196e-05    1.7726605e-05   -2.1664266e-05   -1.1817880e-05    7.5051472e-19   -6.9631960e-06   -1.3892458e-18    6.2676977e-06   -4.8747893e-06    5.5711625e-06   -6.4549117e-19    1.7097098e-19    1.3787519e-05   -9.8482005e-06   -1.9697512e-05    1.5757196e-05   -4.1783874e-06   -6.2676977e-06    4.1343407e-19    5.5711625e-06   -1.8155506e-18    4.8747893e-06   -8.5780754e-19    4.4238622e-19   -7.8786470e-06    1.3787519e-05    1.1817880e-05   -1.7726605e-05   -3.4819873e-06   -1.7219414e-18    4.1783874e-06   -7.4887975e-19    4.8747893e-06   -5.5711625e-06    3.8796512e-20   -4.4221210e-19    9.8482005e-06    1.1817880e-05   -5.9097993e-06   -1.5757196e-05   -3.2563596e-18   -4.8747893e-06   -2.7855313e-06   -6.1913161e-19    4.1783874e-06    3.4819873e-06   -1.2790772e-18   -1.8470126e-18   -3.9352044e-06    7.8786470e-06   -1.3787519e-05    9.8482005e-06   -2.0900761e-06    3.4819873e-06   -1.2551960e-18   -2.8877951e-18    2.7855313e-06   -4.1783874e-06   -2.9363539e-18   -2.5443141e-18   -1.9096392e-06    5.9097993e-06    7.8786470e-06   -1.1817880e-05    2.7855313e-06   -3.4819873e-06   -1.3894135e-06   -2.3285182e-18    2.0900761e-06   -2.4298160e-18   -2.9660137e-18   -3.6493720e-18   -6.9587463e-07    3.9352044e-06   -9.8482005e-06    5.9097993e-06    2.0900761e-06   -6.7122033e-07   -4.0478224e-18    1.3894135e-06   -4.2436181e-18   -2.7855313e-06   -5.1252582e-18   -5.0139305e-18   -2.8615523e-07    3.9352044e-06    1.9096392e-06   -4.5177851e-18   -7.8786470e-06    6.7122033e-07   -2.0900761e-06   -4.0286475e-18    1.3894135e-06   -6.1140385e-18   -5.0086804e-18    6.9587463e-07    1.9096392e-06    2.8615523e-07   -5.9097993e-06   -5.3052089e-18   -4.3986586e-18    6.7122033e-07   -1.3894135e-06   -5.5653427e-18    6.9587463e-07    2.8615523e-07   -3.9352044e-06   -6.7122033e-07   -5.0680955e-18   -6.8628917e-18   -6.1562996e-18   -2.8615523e-07   -1.9096392e-06   -6.9587463e-07
            </DataArray>
            <DataArray type="Float64" Name="fy" NumberOfComponents="1" format="ascii">
               1.1036400e+02   -7.2941653e-14    8.9157440e+01    2.4870515e-03   -1.1036400e+02   -8.9157440e+01    4.7579319e-03   -3.0690602e-03   -1.7442991e-13   -8.1042811e-14   -1.1036400e+02    3.1170817e-03   -2.4870515e-03   -8.9157440e+01    4.5553838e-15   -3.1861628e-03    3.0690602e-03    1.6836532e-13   -4.9519416e-13    4.2415422e-04    8.9157440e+01   -4.7579319e-03   -2.4870515e-03    1.8562929e-13   -2.8522338e-03   -2.4213270e-14    3.0690602e-03    3.1861628e-03   -4.5410203e-13   -1.8280516e-13    1.1036400e+02    5.1406507e-05   -3.1170817e-03   -4.7579319e-03   -8.5257820e-04    2.8522338e-03    3.1861628e-03   -7.4249634e-14   -3.0690602e-03    3.9159648e-14   -1.1687873e-13   -1.5927537e-13   -4.2415422e-04    2.4870515e-03    1.0826320e-05   -3.1170817e-03    4.4225040e-14   -3.1861628e-03   -2.4143152e-05    2.8522338e-03    6.0042249e-14    8.5257820e-04   -1.0220991e-14   -1.4621984e-13    6.3169404e-07    4.7579319e-03   -5.1406507e-05   -4.2415422e-04    8.5257820e-04    3.3454142e-14    8.3787144e-15   -2.8522338e-03   -1.9739214e-06    2.4143152e-05   -1.9963198e-14   -5.6649130e-14   -5.1406507e-05   -1.0826320e-05    4.1469215e-14    3.1170817e-03    1.9739214e-06   -8.5257820e-04    2.4143152e-05    3.9055564e-14   -4.3194615e-16   -1.9123927e-07   -1.1587953e-14    8.3981433e-14   -1.0826320e-05   -6.3169404e-07    1.3487475e-15    4.2415422e-04   -1.0717122e-14    3.0038472e-14    1.9739214e-06    2.8407832e-14   -2.4143152e-05    1.9123928e-07   -7.9589113e-14    5.6198102e-14   -6.3169404e-07    3.9628023e-14    5.1406507e-05   -6.1113224e-14   -1.9739216e-06   -3.0728892e-14    8.5168851e-14   -6.2484740e-14    8.0121673e-14    1.9123929e-07    2.7606389e-14   -1.9631866e-14   -5.8668348e-14    1.0992856e-13    5.3724386e-15    1.0826320e-05   -1.9123938e-07    5.3665405e-14   -1.1297387e-14   -9.0427665e-14   -3.9957621e-14    3.1334310e-14    6.2897604e-14    6.7980344e-14    1.8656084e-14   -6.2055396e-14    6.3169404e-07    3.7438802e-14   -7.8066026e-14   -2.2356596e-13    2.4823893e-15    2.0250294e-14   -2.5018182e-14   -1.0111703e-14   -9.0144905e-14    1.8019267e-13   -1.9914626e-15    5.3634180e-14    7.8853590e-14   -4.2750092e-15   -3.3049084e-14   -6.5844899e-14    8.7447410e-14   -1.5772453e-13   -2.5273186e-14    6.0385724e-15   -8.3775001e-14    9.9845479e-14   -3.6064901e-15   -2.4446591e-14   -1.8740218e-14   -1.0207980e-13    9.9937419e-15    3.6897568e-14    4.8111688e-14   -8.0022794e-15    4.1515402e-14    1.3241144e-14    4.3305637e-14   -1.1769405e-13   -3.5508922e-14   -8.7132558e-14   -2.7102452e-14   -1.6722734e-14    1.6746327e-13   -3.1377678e-14   -2.6400757e-14    1.2921782e-13    5.5453905e-14   -1.1859003e-13    1.2395293e-13   -4.2655983e-14    2.0163558e-14   -3.5209682e-14    1.5161483e-15    2.7955069e-15    2.7159264e-13   -1.6020171e-14   -1.8582358e-14   -3.0268323e-14   -1.2054593e-14    3.6184597e-14    1.0776189e-13    1.3470648e-13   -1.6705387e-14   -4.9698093e-14    1.6514567e-15    4.2179801e-15   -3.2846122e-14    2.5793603e-14   -7.3737023e-14   -6.8103509e-14    1.0810970e-13   -1.0117341e-14    2.2902426e-13    3.9944610e-14    6.8220603e-14   -1.0850348e-13    1.4857907e-15   -3.9448479e-14    3.3714351e-15    8.9902044e-15    9.6055108e-14   -2.3619301e-13    1.0395027e-13   -1.4137996e-14    1.5716595e-13   -1.5176055e-13    1.3140530e-15   -2.5478144e-13   -6.3509961e-14   -1.7503620e-13   -1.1026076e-13    2.4166433e-14   -5.2114996e-14    5.5825136e-14   -8.5088295e-14   -1.8027593e-13    1.5918777e-13    1.2744797e-13   -1.1849229e-15   -1.4854784e-13   -1.1749976e-13   -2.0651102e-13    5.7176486e-14    1.5760396e-14    1.4904744e-14   -1.3011293e-13    1.0311110e-13    5.9648467e-14    1.3250382e-13    1.2129967e-13    2.6075930e-14   -7.4817756e-14    2.2547936e-14    1.3929309e-13    1.1588387e-13   -6.7472070e-14    2.1429896e-13   -2.5910827e-13    2.0910357e-14    2.2084288e-13   -1.6665250e-13    1.5913838e-14   -3.6548889e-14   -1.1809347e-13    1.6390275e-13    4.8694447e-14   -1.1429356e-13   -1.7291594e-13   -2.5359489e-14    2.3990228e-13   -2.1957684e-14   -1.0871035e-13    6.6892672e-14    2.0934643e-14    6.2860307e-14   -9.7828551e-14    5.2998621e-14   -2.2145480e-14    7.5349449e-14    7.1836634e-14
            </DataArray>
            <DataArray type="Float64" Name="uz" NumberOfComponents="1" format="ascii">