<?xml version="1.0"?>
<VTKFile type="UnstructuredGrid" version="0.1" byte_order="LittleEndian">
   <UnstructuredGrid>
      <Piece NumberOfPoints="252" NumberOfCells="120">
         <Points>
            <DataArray type="Float64" NumberOfComponents="3" format="ascii">
               0.0000000e+00     0.0000000e+00     0.0000000e+00
               0.0000000e+00     5.0000000e-02     0.0000000e+00
               0.0000000e+00     0.0000000e+00     3.3333330e-02
               5.0000000e-02     0.0000000e+00     0.0000000e+00
               0.0000000e+00     1.0000000e-01     0.0000000e+00
               0.0000000e+00     0.0000000e+00     6.6666670e-02
               1.0000000e-01     0.0000000e+00     0.0000000e+00
               5.0000000e-02     0.0000000e+00     3.3333330e-02
               0.0000000e+00     5.0000000e-02     3.3333330e-02
               5.0000000e-02     5.0000000e-02     0.0000000e+00
               0.0000000e+00     0.0000000e+00     1.0000000e-01
               1.5000000e-01     0.0000000e+00     0.0000000e+00
               5.0000000e-02     1.0000000e-01     0.0000000e+00
               0.0000000e+00     1.0000000e-01     3.3333330e-02
               1.0000000e-01     5.0000000e-02     0.0000000e+00
               1.0000000e-01     0.0000000e+00     3.3333330e-02
               5.0000000e-02     0.0000000e+00     6.6666670e-02
               0.0000000e+00     5.0000000e-02     6.6666670e-02
               5.0000000e-02     5.0000000e-02     3.3333330e-02
               2.0000000e-01     0.0000000e+00     0.0000000e+00
               0.0000000e+00     1.0000000e-01     6.6666670e-02
               1.0000000e-01     1.0000000e-01     0.0000000e+00
               5.0000000e-02     0.0000000e+00     1.0000000e-01
               0.0000000e+00     5.0000000e-02     1.0000000e-01
               1.5000000e-01     0.0000000e+00     3.3333330e-02
               1.5000000e-01     5.0000000e-02     0.0000000e+00
               5.0000000e-02     1.0000000e-01     3.3333330e-02
               1.0000000e-01     0.0000000e+00     6.6666670e-02
               5.0000000e-02     5.0000000e-02     6.6666670e-02
               1.0000000e-01     5.0000000e-02     3.3333330e-02
               0.0000000e+00     1.0000000e-01     1.0000000e-01
               2.5000000e-01     0.0000000e+00     0.0000000e+00
               1.5000000e-01     1.0000000e-01     0.0000000e+00
               1.0000000e-01     0.0000000e+00     1.0000000e-01
               2.0000000e-01     0.0000000e+00     3.3333330e-02
               1.5000000e-01     0.0000000e+00     6.6666670e-02
               1.0000000e-01     1.0000000e-01     3.3333330e-02
               5.0000000e-02     5.0000000e-02     1.0000000e-01
               5.0000000e-02     1.0000000e-01     6.6666670e-02
               2.0000000e-01     5.0000000e-02     0.0000000e+00
               1.5000000e-01     5.0000000e-02     3.3333330e-02
               1.0000000e-01     5.0000000e-02     6.6666670e-02
               2.0000000e-01     1.0000000e-01     0.0000000e+00
               5.0000000e-02     1.0000000e-01     1.0000000e-01
               3.0000000e-01     0.0000000e+00     0.0000000e+00
               1.5000000e-01     0.0000000e+00     1.0000000e-01
               1.0000000e-01     5.0000000e-02     1.0000000e-01
               1.0000000e-01     1.0000000e-01     6.6666670e-02
               2.5000000e-01     0.0000000e+00     3.3333330e-02
               1.5000000e-01     1.0000000e-01     3.3333330e-02
               2.5000000e-01     5.0000000e-02     0.0000000e+00
               2.0000000e-01     0.0000000e+00     6.6666670e-02
               2.0000000e-01     5.0000000e-02     3.3333330e-02
               1.5000000e-01     5.0000000e-02     6.6666670e-02
               3.5000000e-01     0.0000000e+00     0.0000000e+00
               1.0000000e-01     1.0000000e-01     1.0000000e-01
               2.5000000e-01     1.0000000e-01     0.0000000e+00
               2.0000000e-01     0.0000000e+00     1.0000000e-01
               2.0000000e-01     1.0000000e-01     3.3333330e-02
               3.0000000e-01     5.0000000e-02     0.0000000e+00
               1.5000000e-01     5.0000000e-02     1.0000000e-01
               1.5000000e-01     1.0000000e-01     6.6666670e-02
               3.0000000e-01     0.0000000e+00     3.3333330e-02
               2.5000000e-01     0.0000000e+00     6.6666670e-02
               2.5000000e-01     5.0000000e-02     3.3333330e-02
               2.0000000e-01     5.0000000e-02     6.6666670e-02
               2.5000000e-01     0.0000000e+00     1.0000000e-01
               3.0000000e-01     1.0000000e-01     0.0000000e+00
               4.0000000e-01     0.0000000e+00     0.0000000e+00
               1.5000000e-01     1.0000000e-01     1.0000000e-01
               3.0000000e-01     0.0000000e+00     6.6666670e-02
               2.0000000e-01     1.0000000e-01     6.6666670e-02
               2.5000000e-01     1.0000000e-01     3.3333330e-02
               2.0000000e-01     5.0000000e-02     1.0000000e-01
               3.5000000e-01     5.0000000e-02     0.0000000e+00
               3.5000000e-01     0.0000000e+00     3.3333330e-02
               2.5000000e-01     5.0000000e-02     6.6666670e-02
               3.0000000e-01     5.0000000e-02     3.3333330e-02
               3.0000000e-01     0.0000000e+00     1.0000000e-01
               3.5000000e-01     1.0000000e-01     0.0000000e+00
               4.5000000e-01     0.0000000e+00     0.0000000e+00
               2.0000000e-01     1.0000000e-01     1.0000000e-01
               4.0000000e-01     0.0000000e+00     3.3333330e-02
               4.0000000e-01     5.0000000e-02     0.0000000e+00
               3.0000000e-01     1.0000000e-01     3.3333330e-02
               2.5000000e-01     5.0000000e-02     1.0000000e-01
               2.5000000e-01     1.0000000e-01     6.6666670e-02
               3.5000000e-01     0.0000000e+00     6.6666670e-02
               3.0000000e-01     5.0000000e-02     6.6666670e-02
               3.5000000e-01     5.0000000e-02     3.3333330e-02
               3.5000000e-01     0.0000000e+00     1.0000000e-01
               5.0000000e-01     0.0000000e+00     0.0000000e+00
               2.5000000e-01     1.0000000e-01     1.0000000e-01
               4.0000000e-01     1.0000000e-01     0.0000000e+00
               3.0000000e-01     1.0000000e-01     6.6666670e-02
               4.0000000e-01     0.0000000e+00     6.6666670e-02
               4.5000000e-01     5.0000000e-02     0.0000000e+00
               4.5000000e-01     0.0000000e+00     3.3333330e-02
               3.0000000e-01     5.0000000e-02     1.0000000e-01
               3.5000000e-01     1.0000000e-01     3.3333330e-02
               3.5000000e-01     5.0000000e-02     6.6666670e-02
               4.0000000e-01     5.0000000e-02     3.3333330e-02
               4.5000000e-01     1.0000000e-01     0.0000000e+00
               5.5000000e-01     0.0000000e+00     0.0000000e+00
               4.0000000e-01     0.0000000e+00     1.0000000e-01
               3.0000000e-01     1.0000000e-01     1.0000000e-01
               3.5000000e-01     1.0000000e-01     6.6666670e-02
               4.0000000e-01     1.0000000e-01     3.3333330e-02
               5.0000000e-01     5.0000000e-02     0.0000000e+00
               4.5000000e-01     0.0000000e+00     6.6666670e-02
               5.0000000e-01     0.0000000e+00     3.3333330e-02
               3.5000000e-01     5.0000000e-02     1.0000000e-01
               4.5000000e-01     5.0000000e-02     3.3333330e-02
               4.0000000e-01     5.0000000e-02     6.6666670e-02
               4.5000000e-01     0.0000000e+00     1.0000000e-01
               5.0000000e-01     1.0000000e-01     0.0000000e+00
               3.5000000e-01     1.0000000e-01     1.0000000e-01
               6.0000000e-01     0.0000000e+00     0.0000000e+00
               4.0000000e-01     1.0000000e-01     6.6666670e-02
               5.5000000e-01     0.0000000e+00     3.3333330e-02
               5.0000000e-01     0.0000000e+00     6.6666670e-02
               4.0000000e-01     5.0000000e-02     1.0000000e-01
               4.5000000e-01     1.0000000e-01     3.3333330e-02
               5.5000000e-01     5.0000000e-02     0.0000000e+00
               5.0000000e-01     5.0000000e-02     3.3333330e-02
               4.5000000e-01     5.0000000e-02     6.6666670e-02
               5.0000000e-01     0.0000000e+00     1.0000000e-01
               6.5000000e-01     0.0000000e+00     0.0000000e+00
               5.5000000e-01     1.0000000e-01     0.0000000e+00
               4.0000000e-01     1.0000000e-01     1.0000000e-01
               4.5000000e-01     5.0000000e-02     1.0000000e-01
               4.5000000e-01     1.0000000e-01     6.6666670e-02
               5.5000000e-01     0.0000000e+00     6.6666670e-02
               6.0000000e-01     0.0000000e+00     3.3333330e-02
               6.0000000e-01     5.0000000e-02     0.0000000e+00
               5.0000000e-01     1.0000000e-01     3.3333330e-02
               5.5000000e-01     5.0000000e-02     3.3333330e-02
               5.0000000e-01     5.0000000e-02     6.6666670e-02
               6.0000000e-01     1.0000000e-01     0.0000000e+00
               5.5000000e-01     0.0000000e+00     1.0000000e-01
               4.5000000e-01     1.0000000e-01     1.0000000e-01
               7.0000000e-01     0.0000000e+00     0.0000000e+00
               6.5000000e-01     5.0000000e-02     0.0000000e+00
               5.0000000e-01     1.0000000e-01     6.6666670e-02
               5.0000000e-01     5.0000000e-02     1.0000000e-01
               5.5000000e-01     1.0000000e-01     3.3333330e-02
               6.5000000e-01     0.0000000e+00     3.3333330e-02
               6.0000000e-01     0.0000000e+00     6.6666670e-02
               5.5000000e-01     5.0000000e-02     6.6666670e-02
[...]
         <PointData>
            <DataArray type="Int32" Name="node-id" NumberOfComponents="1" format="ascii">
               1  2  3  4  5  6  7  8  9  10  11  12  13  14  15  16  17  18  19  20  21  22  23  24  25  26  27  28  29  30  31  32  33  34  35  36  37  38  39  40  41  42  43  44  45  46  47  48  49  50  51  52  53  54  55  56  57  58  59  60  61  62  63  64  65  66  67  68  69  70  71  72  73  74  75  76  77  78  79  80  81  82  83  84  85  86  87  88  89  90  91  92  93  94  95  96  97  98  99  100  101  102  103  104  105  106  107  108  109  110  111  112  113  114  115  116  117  118  119  120  121  122  123  124  125  126  127  128  129  130  131  132  133  134  135  136  137  138  139  140  141  142  143  144  145  146  147  148  149  150  151  152  153  154  155  156  157  158  159  160  161  162  163  164  165  166  167  168  169  170  171  172  173  174  175  176  177  178  179  180  181  182  183  184  185  186  187  188  189  190  191  192  193  194  195  196  197  198  199  200  201  202  203  204  205  206  207  208  209  210  211  212  213  214  215  216  217  218  219  220  221  222  223  224  225  226  227  228  229  230  231  232  233  234  235  236  237  238  239  240  241  242  243  244  245  246  247  248  249  250  251  252  
            </DataArray>
            <DataArray type="Float64" Name="ux" NumberOfComponents="1" format="ascii">
               0.0000000e+00    0.0000000e+00    0.0000000e+00   -1.4312698e-04    0.0000000e+00    0.0000000e+00   -2.7969448e-04   -4.6419667e-05    0.0000000e+00   -1.4000050e-04    0.0000000e+00   -4.1090575e-04   -1.4312698e-04    0.0000000e+00   -2.8023007e-04   -9.2612150e-05    4.6419667e-05    0.0000000e+00   -4.4293531e-05   -5.3444324e-04    0.0000000e+00   -2.7969448e-04    1.4312698e-04    0.0000000e+00   -1.3603921e-04   -4.1130470e-04   -4.6419667e-05    9.2612150e-05    4.4293531e-05   -9.2919698e-05    0.0000000e+00   -6.5049861e-04   -4.1090575e-04    2.7969448e-04   -1.7729033e-04    1.3603921e-04   -9.2612150e-05    1.4000050e-04    4.6419667e-05   -5.3480529e-04   -1.3631297e-04    9.2919698e-05   -5.3444324e-04    1.4312698e-04   -7.5906329e-04    4.1090575e-04    2.8023007e-04    9.2612150e-05   -2.1596337e-04   -1.3603921e-04   -6.5086118e-04    1.7729033e-04   -1.7751030e-04    1.3631297e-04   -8.6014211e-04    2.7969448e-04   -6.5049861e-04    5.3444324e-04   -1.7729033e-04   -7.5942773e-04    4.1130470e-04    1.3603921e-04   -2.5215346e-04    2.1596337e-04   -2.1619434e-04    1.7751030e-04    6.5049861e-04   -7.5906329e-04   -9.5373328e-04    4.1090575e-04    2.5215346e-04    1.7729033e-04   -2.1596337e-04    5.3480529e-04   -8.6050603e-04   -2.8584609e-04    2.1619434e-04   -2.5238268e-04    7.5906329e-04   -8.6014211e-04   -1.0398373e-03    5.3444324e-04   -3.1704322e-04   -9.5409731e-04   -2.5215346e-04    6.5086118e-04    2.1596337e-04    2.8584609e-04    2.5238268e-04   -2.8607566e-04    8.6014211e-04   -1.1184538e-03    6.5049861e-04   -9.5373328e-04    2.5215346e-04    3.1704322e-04   -1.0402013e-03   -3.4574451e-04    7.5942773e-04   -2.8584609e-04    2.8607566e-04   -3.1727270e-04   -1.0398373e-03   -1.1895832e-03    9.5373328e-04    7.5906329e-04    2.8584609e-04   -3.1704322e-04   -1.1188178e-03    3.4574451e-04   -3.7195007e-04    8.6050603e-04   -3.4597403e-04    3.1727270e-04    1.0398373e-03   -1.1184538e-03    8.6014211e-04   -1.2532253e-03    3.1704322e-04   -3.9565985e-04    3.7195007e-04    9.5409731e-04   -3.4574451e-04   -1.1899472e-03   -3.7217958e-04    3.4597403e-04    1.1184538e-03   -1.3093799e-03   -1.1895832e-03    9.5373328e-04    1.0402013e-03    3.4574451e-04    3.9565985e-04   -4.1687387e-04   -1.2535893e-03   -3.7195007e-04   -3.9588936e-04    3.7217958e-04   -1.2532253e-03    1.1895832e-03    1.0398373e-03   -1.3580474e-03   -1.3097440e-03    3.7195007e-04    1.1188178e-03   -3.9565985e-04   -4.3559211e-04    4.1687387e-04    3.9588936e-04   -4.1710338e-04   -1.3093799e-03   -1.3992275e-03    1.1184538e-03    1.2532253e-03   -4.5181462e-04    3.9565985e-04   -1.3584114e-03   -4.1687387e-04    1.1899472e-03    4.3559211e-04    4.1710338e-04   -4.3582162e-04   -1.4329205e-03    1.3093799e-03   -1.3580474e-03    1.1895832e-03   -4.6554132e-04    1.2535893e-03    4.5181462e-04   -1.3995916e-03   -4.3559211e-04    4.1687387e-04   -4.5204413e-04    4.3582162e-04   -1.3992275e-03    1.3580474e-03   -1.4591261e-03    1.2532253e-03    1.3097440e-03    4.3559211e-04   -4.7677240e-04   -1.4332844e-03   -4.5181462e-04    4.6554132e-04    4.5204413e-04   -4.6577083e-04   -1.4778373e-03   -1.4329205e-03    1.3093799e-03    1.3992275e-03   -4.8550690e-04   -4.6554132e-04   -1.4594900e-03    1.3584114e-03    4.7677240e-04    4.5181462e-04    4.6577083e-04   -4.7700168e-04   -1.4891179e-03   -1.4591261e-03    1.4329205e-03    1.3580474e-03   -4.7677240e-04    4.6554132e-04   -4.9174554e-04   -1.4782145e-03    4.8550690e-04    1.3995916e-03    4.7700168e-04   -4.8573731e-04   -1.4929732e-03   -1.4778373e-03    1.3992275e-03    1.4591261e-03   -4.8550690e-04   -4.9551018e-04   -1.4893857e-03    4.9174554e-04    1.4332844e-03    4.7677240e-04   -4.9197866e-04    4.8573731e-04   -4.9680355e-04    1.4778373e-03   -1.4891179e-03   -1.4931187e-03    1.4329205e-03    4.9551018e-04    4.8550690e-04    1.4594900e-03   -4.9174554e-04    4.9197866e-04   -4.9569400e-04   -1.4929732e-03    1.4891179e-03    4.9680355e-04    1.4591261e-03   -4.9693679e-04    1.4782145e-03   -4.9551018e-04    4.9174554e-04    4.9569400e-04    1.4929732e-03   -4.9680355e-04    1.4778373e-03    4.9551018e-04    1.4893857e-03    4.9693679e-04    1.4931187e-03    4.9680355e-04    1.4891179e-03    1.4929732e-03
            </DataArray>
            <DataArray type="Float64" Name="fx" NumberOfComponents="1" format="ascii">
               2.3108733e+02    4.4063617e+02    1.6263940e+02   -7.9936058e-15    2.3108733e+02   -1.6263940e+02    1.7141844e-13    2.0650148e-14    2.9979037e+02    7.6383344e-14   -2.3108733e+02    6.2172489e-15    5.9507954e-14    1.6263940e+02    4.6185278e-14   -2.5757174e-14    1.7763568e-14   -2.9979037e+02   -5.1958438e-14    9.8143715e-14   -1.6263940e+02    1.6786572e-13   -1.1546319e-14   -4.4063617e+02    9.5923269e-14    4.2144066e-13   -3.1086245e-15   -3.2418512e-14    7.5495166e-15   -2.7311486e-14   -2.3108733e+02    9.6367359e-14   -1.8651747e-14   -1.7763568e-15    1.0680345e-13    9.0372154e-14    6.1506356e-14    3.6415315e-14   -4.6629367e-15   -6.6169292e-14    1.5565327e-13   -7.0610184e-14    1.2878587e-14    3.9968029e-14    3.9435122e-13    2.0783375e-13   -1.2434498e-14    2.4424907e-15   -1.1346479e-13   -1.8829382e-13   -3.1619152e-13   -4.1078252e-14    2.2404301e-13   -1.7141844e-13   -1.6964208e-13    8.0824236e-14    1.3677948e-13   -2.7400304e-13    2.0872193e-13    4.1922021e-13   -5.2846616e-14   -6.5281114e-14    2.5901503e-13    1.4055423e-13    1.8196555e-13   -1.1834977e-13    2.3803182e-13   -1.4210855e-14    4.4098059e-13   -4.9293902e-14   -3.9412917e-13   -1.8496316e-13    2.1049829e-13   -2.5446312e-13    1.8340884e-13    2.8976821e-14   -1.4588331e-13    6.4792616e-13    1.7053026e-13    4.9515947e-13    3.9968029e-14    1.8163249e-13   -3.3806291e-13    6.2749805e-13   -3.0608849e-13    1.2478907e-13   -3.2929215e-13    3.5749181e-14   -6.5303318e-13    2.5035529e-13   -2.9753977e-13   -1.0635937e-12   -2.7533531e-14    5.9108274e-13    4.7206683e-13    2.3536728e-14   -1.1262102e-12   -3.4727776e-13   -6.4304118e-13   -3.6415315e-14   -6.1417538e-13   -3.4638958e-13    6.5769612e-13    7.4873441e-13    3.3661962e-13   -3.2285286e-13   -2.6778579e-13   -5.6066263e-13    1.8656188e-12    2.1227464e-13   -1.0302870e-12   -7.3363537e-13   -1.1159962e-12   -1.5725199e-12    7.0787820e-13    3.8991033e-13    9.6056496e-13    1.7821300e-12   -1.2545520e-13    4.8272497e-13    4.1777692e-13    6.2438943e-13    1.8529622e-13   -1.3944401e-13    7.0832229e-14    1.6195933e-12    1.1413093e-12   -1.2385648e-12    1.7030821e-13   -8.4376950e-14    6.7945649e-14    1.7097435e-14   -6.7923445e-13    9.6744834e-13   -2.3512303e-12   -4.8272497e-13    2.1167512e-12    5.5400129e-14    1.3551382e-12   -1.4743762e-13   -3.7303494e-13   -5.0182081e-14    9.2592600e-13   -5.1680882e-13   -4.2010839e-13    7.4074080e-13   -7.6139095e-13    7.4540374e-13   -1.3575807e-12    9.8521191e-13    1.1741719e-12   -8.4554586e-13    3.3706371e-13    6.7323924e-13    6.8600681e-13   -2.9498626e-13    2.2200020e-12    2.5357494e-13    3.2107650e-13   -1.9644286e-12   -1.5892843e-12    3.6038950e-12    4.4131365e-13    3.9879211e-13   -9.1415764e-13    3.6193271e-14    2.3619995e-12   -2.1782576e-12   -1.5765167e-14   -7.1076478e-13    1.3895551e-12   -7.3052675e-13    2.4076297e-12    9.0483177e-13   -4.3742787e-14   -5.2269300e-13    5.0393023e-13   -1.5487611e-12    5.1956217e-12   -1.5782931e-12   -1.8698376e-12    2.1699309e-12   -6.6269212e-13    4.5530246e-13    9.6034292e-14    3.6136094e-12    2.1893598e-12    3.0986325e-13    1.0083046e-12   -3.2154279e-12   -8.4598994e-14    3.3095748e-13    2.3082647e-12    4.3121062e-13    8.7135854e-13   -2.7097213e-12    1.3153922e-12    2.8551050e-12    4.5788373e-13   -2.4922286e-12    3.5760284e-13   -6.3637984e-13   -2.6506020e-12   -3.9340753e-13   -8.3372198e-13    5.7108207e-12    1.3998525e-12   -1.9451107e-12    3.5077496e-13   -4.8581694e-12   -1.2967197e-12   -1.5654145e-14    4.7450932e-13    5.4600768e-13   -1.8282598e-12    1.3869461e-12   -3.1266656e-13    2.5528329e-12   -1.4276358e-12   -3.7869707e-13   -5.9080518e-13    2.8919367e-12   -2.0477509e-12    7.6444406e-13    1.6465440e-12   -3.6574910e-12    1.8092194e-12   -1.3126999e-13    2.7506331e-12    2.1261881e-12    2.1171953e-12    8.2649859e-13   -1.1636525e-12   -1.7281628e-12   -8.0147000e-13   -8.8259955e-13    1.3788970e-13    2.6423308e-14   -9.2917340e-12    6.1609051e-13    4.6629367e-15    1.1233306e-12    1.8806302e-12   -2.3975544e-12   -2.3148705e-12    9.2426067e-13   -4.0121517e-12    3.2467362e-12   -1.2326772e-12    8.5836893e-13   -2.5895952e-14    1.1742274e-12
            </DataArray>
            <DataArray type="Float64" Name="uy" NumberOfComponents="1" format="ascii">
               0.0000000e+00    0.0000000e+00    0.0000000e+00   -2.6934844e-05    0.0000000e+00    0.0000000e+00   -2.5103493e-05   -9.6461627e-06    0.0000000e+00    3.8310562e-17    0.0000000e+00   -2.3557091e-05    2.6934844e-05    0.0000000e+00    1.6644064e-16   -8.9633868e-06    9.6461627e-06    0.0000000e+00    4.3625681e-17   -2.2158210e-05    0.0000000e+00    2.5103493e-05    2.6934844e-05    0.0000000e+00   -8.2985971e-06    3.6829284e-16    9.6461627e-06    8.9633868e-06    4.2459439e-17    1.7083334e-16    0.0000000e+00   -2.0783287e-05    2.3557091e-05    2.5103493e-05   -7.8411167e-06    8.2985971e-06    8.9633868e-06    3.4759390e-17   -9.6461627e-06    6.3854664e-16    3.7097187e-16    1.6845754e-16    2.2158210e-05   -2.6934844e-05   -1.9395762e-05    2.3557091e-05    1.5929936e-16   -8.9633868e-06   -7.3468750e-06    8.2985971e-06    9.7067943e-16    7.8411167e-06    6.3957568e-16    3.6743987e-16   -1.8010616e-05   -2.5103493e-05    2.0783287e-05    2.2158210e-05    7.8411167e-06    1.3586693e-15    3.5775606e-16   -8.2985971e-06   -6.8579261e-06    7.3468750e-06    9.7019800e-16    6.3501435e-16    2.0783287e-05    1.9395762e-05   -1.6625148e-05   -2.3557091e-05    6.8579261e-06   -7.8411167e-06    7.3468750e-06    6.2473344e-16    1.7968703e-15   -6.3678781e-06    9.6464241e-16    1.3568578e-15    1.9395762e-05    1.8010616e-05   -1.5239725e-05   -2.2158210e-05   -5.8780779e-06    2.2792234e-15    6.8579261e-06    9.5408521e-16   -7.3468750e-06    6.3678781e-06    1.3503367e-15    1.7933985e-15    1.8010616e-05   -1.3854295e-05   -2.0783287e-05    1.6625148e-05   -6.8579261e-06    5.8780779e-06    2.7992177e-15   -5.3882327e-06    1.3392676e-15    6.3678781e-06    1.7858368e-15    2.2735766e-15    1.5239725e-05   -1.2468865e-05    1.6625148e-05   -1.9395762e-05   -6.3678781e-06    5.8780779e-06    3.3507315e-15    5.3882327e-06   -4.8983939e-06    1.7742605e-15    2.7917564e-15    2.2649019e-15    1.5239725e-05    1.3854295e-05   -1.8010616e-05   -1.1083436e-05   -5.8780779e-06   -4.4085546e-06    4.8983939e-06    2.2530990e-15    5.3882327e-06    3.9274923e-15    3.3425451e-15    2.7820344e-15    1.3854295e-05   -9.6980066e-06    1.2468865e-05   -1.6625148e-05    2.7696080e-15   -5.3882327e-06    4.4085546e-06   -3.9187153e-06    4.5272463e-15    4.8983939e-06    3.9197242e-15    3.3321359e-15    1.1083436e-05    1.2468865e-05   -1.5239725e-05   -8.3125788e-06    5.1436465e-15   -4.8983939e-06    3.3194215e-15    4.4085546e-06   -3.4288757e-06    3.9187153e-06    3.9101950e-15    4.5200444e-15    9.6980066e-06   -6.9271264e-06   -1.3854295e-05    1.1083436e-05   -2.9390367e-06   -4.4085546e-06    5.7730725e-15    3.9187153e-06    3.8977445e-15    3.4288757e-06    4.5109752e-15    5.1379566e-15   -5.5417618e-06    9.6980066e-06    8.3125788e-06   -1.2468865e-05   -2.4491953e-06    4.5009721e-15    2.9390367e-06    6.4112241e-15    3.4288757e-06   -3.9187153e-06    5.7687958e-15    5.1304604e-15    6.9271264e-06    8.3125788e-06   -4.1568937e-06   -1.1083436e-05    5.1208376e-15   -3.4288757e-06   -1.9593149e-06    7.0586783e-15    2.9390367e-06    2.4491953e-06    5.7627976e-15    6.4084099e-15   -2.7679835e-06    5.5417618e-06   -9.6980066e-06    6.9271264e-06   -1.4701386e-06    2.4491953e-06    7.7072748e-15    5.7564160e-15    1.9593149e-06   -2.9390367e-06    6.4049756e-15    7.0557459e-15   -1.3432212e-06    4.1568937e-06    5.5417618e-06   -8.3125788e-06    1.9593149e-06   -2.4491953e-06   -9.7729958e-07    8.3612113e-15    1.4701387e-06    6.4016506e-15    7.0538337e-15    7.7065531e-15   -4.8947129e-07    2.7679835e-06   -6.9271264e-06    4.1568937e-06    1.4701387e-06   -4.7212967e-07    9.0141314e-15    9.7729958e-07    7.0513104e-15   -1.9593149e-06    8.3593766e-15    7.7051529e-15   -2.0127872e-07    2.7679835e-06    1.3432212e-06    9.6713765e-15   -5.5417618e-06    4.7212970e-07   -1.4701386e-06    7.7049268e-15    9.7729958e-07    8.3589125e-15    9.0145481e-15    4.8947129e-07    1.3432212e-06    2.0127874e-07   -4.1568937e-06    9.6705531e-15    8.3598044e-15    4.7212970e-07   -9.7729958e-07    9.0150038e-15    4.8947129e-07    2.0127874e-07   -2.7679835e-06   -4.7212967e-07    9.0160847e-15    9.6702922e-15    9.6708742e-15   -2.0127872e-07   -1.3432212e-06   -4.8947129e-07
            </DataArray>
            <DataArray type="Float64" Name="fy" NumberOfComponents="1" format="ascii">
               4.0954105e+01    1.9809487e-11    3.4599888e+01    6.2033712e-15   -4.0954105e+01   -3.4599888e+01    2.2390076e-14   -1.9192981e-14    2.8081801e-11   -1.2909812e-14   -4.0954105e+01   -5.7910274e-14   -3.5693670e-14   -3.4599888e+01    6.5260297e-14   -9.0760732e-15    2.1552204e-14    3.1056546e-11   -9.1107677e-15    4.1430748e-13    3.4599888e+01   -8.3058560e-15    1.2490009e-15    2.3659519e-11    1.0827450e-13    5.2621102e-14   -1.5529245e-14   -4.6122828e-14   -1.2670420e-14    1.4208079e-13    4.0954105e+01    2.6190161e-13   -7.3087369e-14    4.5219037e-14    7.2108985e-14   -8.9588059e-14    1.4944990e-13   -3.7157777e-15    9.7838404e-16   -3.0366334e-13    8.1351592e-14    5.2624571e-14   -1.3086233e-13   -1.4335755e-14   -3.7203920e-13   -1.6465995e-14    3.5717956e-14    2.1649349e-15   -2.5204838e-13   -2.5338065e-13   -3.5933409e-13    2.1510571e-15    8.2281404e-14   -1.9192981e-14    7.7710408e-14   -3.8634027e-14    5.4390520e-14    7.0599776e-14   -1.1718404e-13   -4.6372628e-13    2.4109881e-13    1.6160684e-14   -1.4598739e-13    1.9820950e-13    1.5321078e-14    4.8487603e-13    1.0018548e-13    5.3371370e-13   -3.6379753e-13    1.0717122e-13    1.5059481e-13   -2.8303748e-14    1.2569112e-13    2.8588243e-15   -1.5785290e-13   -3.5420278e-13    7.5703332e-14    3.6357722e-13   -1.4198018e-13    2.8532905e-13    1.3219790e-12    1.0660743e-13    1.9500096e-12    2.2710167e-12    5.3994309e-13    3.7726766e-13   -5.1708637e-14    5.3233112e-13    4.9724114e-14    6.4425548e-13    1.8349211e-13    9.3364032e-13    1.3502914e-13    3.0520031e-13    1.5570878e-14   -2.6784130e-13    1.2373540e-12    1.5649426e-12    2.0497493e-13    4.0539100e-13    9.6028741e-13   -1.2798096e-13    2.4790760e-13    3.9670871e-13    1.0859178e-12    2.5793430e-13    4.3067633e-13   -3.2490677e-13    2.1306498e-12    5.8019561e-13    8.6110979e-13    2.1446733e-13    1.0015981e-12    2.4487357e-13   -8.1012107e-13    1.5781473e-13   -4.3154542e-13    7.0896934e-13   -3.6316783e-13    1.7613827e-12    5.9922553e-13    5.8363037e-13    4.4270143e-14   -1.2837908e-12    1.1143621e-12   -1.4811763e-13    3.1071153e-13    3.0641670e-12    4.9676582e-13    4.7455789e-13   -3.5508749e-13    9.5701225e-14    8.8903537e-13    2.0339910e-12    8.4105119e-13   -2.1654206e-13    4.9674848e-13   -1.2687074e-13    5.4969397e-13    1.3871404e-12   -3.5776763e-13    3.0505043e-12   -2.8380250e-13    2.8647223e-13    8.2967661e-13   -8.7331531e-13    1.9679432e-12   -8.6725765e-13   -6.7060246e-13    1.3567862e-12   -3.5015393e-13    2.5225377e-12    6.9437511e-14   -5.6775765e-13    1.8128207e-13   -1.0717469e-12    3.6732284e-12    1.7505442e-13   -3.0460062e-12   -4.0678919e-13    1.0454346e-12    3.9879142e-12    3.2686701e-12    5.2700899e-14   -3.4151328e-13    1.8150412e-13    2.0120294e-12    1.7757167e-12    1.1742690e-12    9.2122490e-14    2.9098113e-12   -5.6621374e-15    3.2779994e-12   -1.4523348e-12    4.3067980e-14   -6.5900931e-13    6.0022039e-12    1.0826392e-12    1.8232811e-13   -2.1421059e-13    6.4003108e-12    8.4805218e-12   -1.8516438e-13    1.5380613e-12   -2.4054994e-12   -9.2262135e-13    1.5652948e-12    1.8716764e-12   -2.5044723e-13   -9.1251659e-13    5.2820370e-12    3.2039510e-12   -7.1831256e-13   -1.4916818e-12    1.7834232e-12   -7.5447634e-13   -2.6239774e-13    3.4090942e-12   -8.5612420e-13   -1.4166741e-12   -2.5733009e-12   -4.1528586e-13   -2.6961766e-12    5.4738106e-12    1.6261627e-12    4.8603725e-12    3.0782894e-12   -1.9267470e-12    1.9717318e-12   -4.2944311e-12    1.3679376e-12    2.0173620e-13   -8.3380004e-13   -3.2811115e-12   -5.3508760e-13    5.2369871e-12   -5.7193382e-12    1.0713153e-12   -3.3431452e-12   -1.9090727e-12   -5.6561691e-12    4.6663055e-12   -3.5595658e-14    3.0845222e-12   -1.6456975e-13    1.4788676e-12    6.0253191e-13    2.7972503e-13   -1.1181180e-12    5.0294317e-13   -4.2615269e-12   -1.4949344e-12   -4.2350437e-12    1.9192276e-12    4.4014618e-12    8.4651904e-14   -1.5675117e-12   -7.3254770e-14    1.1380827e-12   -9.2613070e-13    1.6941136e-13    5.0727313e-12    1.0782994e-14   -1.8577587e-13   -5.0770152e-14    5.9427983e-13   -8.2521663e-13    4.1124946e-12   -4.2749615e-13    5.3137009e-13    5.6957911e-13    2.2107121e-13
            </DataArray>
            <DataArray type="Float64" Name="uz" NumberOfComponents="1" format="ascii">