<?xml version="1.0"?>
<VTKFile type="UnstructuredGrid" version="0.1" byte_order="LittleEndian">
   <UnstructuredGrid>
      <Piece NumberOfPoints="252" NumberOfCells="120">
         <Points>
            <DataArray type="Float64" NumberOfComponents="3" format="ascii">
               0.0000000e+00     0.0000000e+00     0.0000000e+00
               0.0000000e+00     5.0000000e-02     0.0000000e+00
               0.0000000e+00     0.0000000e+00     3.3333330e-02
               5.0000000e-02     0.0000000e+00     0.0000000e+00
               0.0000000e+00     1.0000000e-01     0.0000000e+00
               0.0000000e+00     0.0000000e+00     6.6666670e-02
               1.0000000e-01     0.0000000e+00     0.0000000e+00
               5.0000000e-02     0.0000000e+00     3.3333330e-02
               0.0000000e+00     5.0000000e-02     3.3333330e-02
               5.0000000e-02     5.0000000e-02     0.0000000e+00
               0.0000000e+00     0.0000000e+00     1.0000000e-01
               1.5000000e-01     0.0000000e+00     0.0000000e+00
               5.0000000e-02     1.0000000e-01     0.0000000e+00
               0.0000000e+00     1.0000000e-01     3.3333330e-02
               1.0000000e-01     5.0000000e-02     0.0000000e+00
               1.0000000e-01     0.0000000e+00     3.3333330e-02
               5.0000000e-02     0.0000000e+00     6.6666670e-02
               0.0000000e+00     5.0000000e-02     6.6666670e-02
               5.0000000e-02     5.0000000e-02     3.3333330e-02
               2.0000000e-01     0.0000000e+00     0.0000000e+00
               0.0000000e+00     1.0000000e-01     6.6666670e-02
               1.0000000e-01     1.0000000e-01     0.0000000e+00
               5.0000000e-02     0.0000000e+00     1.0000000e-01
               0.0000000e+00     5.0000000e-02     1.0000000e-01
               1.5000000e-01     0.0000000e+00     3.3333330e-02
               1.5000000e-01     5.0000000e-02     0.0000000e+00
               5.0000000e-02     1.0000000e-01     3.3333330e-02
               1.0000000e-01     0.0000000e+00     6.6666670e-02
               5.0000000e-02     5.0000000e-02     6.6666670e-02
               1.0000000e-01     5.0000000e-02     3.3333330e-02
               0.0000000e+00     1.0000000e-01     1.0000000e-01
               2.5000000e-01     0.0000000e+00     0.0000000e+00
               1.5000000e-01     1.0000000e-01     0.0000000e+00
               1.0000000e-01     0.0000000e+00     1.0000000e-01
               2.0000000e-01     0.0000000e+00     3.3333330e-02
               1.5000000e-01     0.0000000e+00     6.6666670e-02
               1.0000000e-01     1.0000000e-01     3.3333330e-02
               5.0000000e-02     5.0000000e-02     1.0000000e-01
               5.0000000e-02     1.0000000e-01     6.6666670e-02
               2.0000000e-01     5.0000000e-02     0.0000000e+00
               1.5000000e-01     5.0000000e-02     3.3333330e-02
               1.0000000e-01     5.0000000e-02     6.6666670e-02
               2.0000000e-01     1.0000000e-01     0.0000000e+00
               5.0000000e-02     1.0000000e-01     1.0000000e-01
               3.0000000e-01     0.0000000e+00     0.0000000e+00
               1.5000000e-01     0.0000000e+00     1.0000000e-01
               1.0000000e-01     5.0000000e-02     1.0000000e-01
               1.0000000e-01     1.0000000e-01     6.6666670e-02
               2.5000000e-01     0.0000000e+00     3.3333330e-02
               1.5000000e-01     1.0000000e-01     3.3333330e-02
               2.5000000e-01     5.0000000e-02     0.0000000e+00
               2.0000000e-01     0.0000000e+00     6.6666670e-02
               2.0000000e-01     5.0000000e-02     3.3333330e-02
               1.5000000e-01     5.0000000e-02     6.6666670e-02
               3.5000000e-01     0.0000000e+00     0.0000000e+00
               1.0000000e-01     1.0000000e-01     1.0000000e-01
               2.5000000e-01     1.0000000e-01     0.0000000e+00
               2.0000000e-01     0.0000000e+00     1.0000000e-01
               2.0000000e-01     1.0000000e-01     3.3333330e-02
               3.0000000e-01     5.0000000e-02     0.0000000e+00
               1.5000000e-01     5.0000000e-02     1.0000000e-01
               1.5000000e-01     1.0000000e-01     6.6666670e-02
               3.0000000e-01     0.0000000e+00     3.3333330e-02
               2.5000000e-01     0.0000000e+00     6.6666670e-02
               2.5000000e-01     5.0000000e-02     3.3333330e-02
               2.0000000e-01     5.0000000e-02     6.6666670e-02
               2.5000000e-01     0.0000000e+00     1.0000000e-01
               3.0000000e-01     1.0000000e-01     0.0000000e+00
               4.0000000e-01     0.0000000e+00     0.0000000e+00
               1.5000000e-01     1.0000000e-01     1.0000000e-01
               3.0000000e-01     0.0000000e+00     6.6666670e-02
               2.0000000e-01     1.0000000e-01     6.6666670e-02
               2.5000000e-01     1.0000000e-01     3.3333330e-02
               2.0000000e-01     5.0000000e-02     1.0000000e-01
               3.5000000e-01     5.0000000e-02     0.0000000e+00
               3.5000000e-01     0.0000000e+00     3.3333330e-02
               2.5000000e-01     5.0000000e-02     6.6666670e-02
               3.0000000e-01     5.0000000e-02     3.3333330e-02
               3.0000000e-01     0.0000000e+00     1.0000000e-01
               3.5000000e-01     1.0000000e-01     0.0000000e+00
               4.5000000e-01     0.0000000e+00     0.0000000e+00
               2.0000000e-01     1.0000000e-01     1.0000000e-01
               4.0000000e-01     0.0000000e+00     3.3333330e-02
               4.0000000e-01     5.0000000e-02     0.0000000e+00
               3.0000000e-01     1.0000000e-01     3.3333330e-02
               2.5000000e-01     5.0000000e-02     1.0000000e-01
               2.5000000e-01     1.0000000e-01     6.6666670e-02
               3.5000000e-01     0.0000000e+00     6.6666670e-02
               3.0000000e-01     5.0000000e-02     6.6666670e-02
               3.5000000e-01     5.0000000e-02     3.3333330e-02
               3.5000000e-01     0.0000000e+00     1.0000000e-01
               5.0000000e-01     0.0000000e+00     0.0000000e+00
               2.5000000e-01     1.0000000e-01     1.0000000e-01
               4.0000000e-01     1.0000000e-01     0.0000000e+00
               3.0000000e-01     1.0000000e-01     6.6666670e-02
               4.0000000e-01     0.0000000e+00     6.6666670e-02
               4.5000000e-01     5.0000000e-02     0.0000000e+00
               4.5000000e-01     0.0000000e+00     3.3333330e-02
               3.0000000e-01     5.0000000e-02     1.0000000e-01
               3.5000000e-01     1.0000000e-01     3.3333330e-02
               3.5000000e-01     5.0000000e-02     6.6666670e-02
               4.0000000e-01     5.0000000e-02     3.3333330e-02
               4.5000000e-01     1.0000000e-01     0.0000000e+00
               5.5000000e-01     0.0000000e+00     0.0000000e+00
               4.0000000e-01     0.0000000e+00     1.0000000e-01
               3.0000000e-01     1.0000000e-01     1.0000000e-01
               3.5000000e-01     1.0000000e-01     6.6666670e-02
               4.0000000e-01     1.0000000e-01     3.3333330e-02
               5.0000000e-01     5.0000000e-02     0.0000000e+00
               4.5000000e-01     0.0000000e+00     6.6666670e-02
               5.0000000e-01     0.0000000e+00     3.3333330e-02
               3.5000000e-01     5.0000000e-02     1.0000000e-01
               4.5000000e-01     5.0000000e-02     3.3333330e-02
               4.0000000e-01     5.0000000e-02     6.6666670e-02
               4.5000000e-01     0.0000000e+00     1.0000000e-01
               5.0000000e-01     1.0000000e-01     0.0000000e+00
               3.5000000e-01     1.0000000e-01     1.0000000e-01
               6.0000000e-01     0.0000000e+00     0.0000000e+00
               4.0000000e-01     1.0000000e-01     6.6666670e-02
               5.5000000e-01     0.0000000e+00     3.3333330e-02
               5.0000000e-01     0.0000000e+00     6.6666670e-02
               4.0000000e-01     5.0000000e-02     1.0000000e-01
               4.5000000e-01     1.0000000e-01     3.3333330e-02
               5.5000000e-01     5.0000000e-02     0.0000000e+00
               5.0000000e-01     5.0000000e-02     3.3333330e-02
               4.5000000e-01     5.0000000e-02     6.6666670e-02
               5.0000000e-01     0.0000000e+00     1.0000000e-01
               6.5000000e-01     0.0000000e+00     0.0000000e+00
               5.5000000e-01     1.0000000e-01     0.0000000e+00
               4.0000000e-01     1.0000000e-01     1.0000000e-01
               4.5000000e-01     5.0000000e-02     1.0000000e-01
               4.5000000e-01     1.0000000e-01     6.6666670e-02
               5.5000000e-01     0.0000000e+00     6.6666670e-02
               6.0000000e-01     0.0000000e+00     3.3333330e-02
               6.0000000e-01     5.0000000e-02     0.0000000e+00
               5.0000000e-01     1.0000000e-01     3.3333330e-02
               5.5000000e-01     5.0000000e-02     3.3333330e-02
               5.0000000e-01     5.0000000e-02     6.6666670e-02
               6.0000000e-01     1.0000000e-01     0.0000000e+00
               5.5000000e-01     0.0000000e+00     1.0000000e-01
               4.5000000e-01     1.0000000e-01     1.0000000e-01
               7.0000000e-01     0.0000000e+00     0.0000000e+00
               6.5000000e-01     5.0000000e-02     0.0000000e+00
               5.0000000e-01     1.0000000e-01     6.6666670e-02
               5.0000000e-01     5.0000000e-02     1.0000000e-01
               5.5000000e-01     1.0000000e-01     3.3333330e-02
               6.5000000e-01     0.0000000e+00     3.3333330e-02
               6.0000000e-01     0.0000000e+00     6.6666670e-02
               5.5000000e-01     5.0000000e-02     6.6666670e-02
[...]
         <PointData>
            <DataArray type="Int32" Name="node-id" NumberOfComponents="1" format="ascii">
               1  2  3  4  5  6  7  8  9  10  11  12  13  14  15  16  17  18  19  20  21  22  23  24  25  26  27  28  29  30  31  32  33  34  35  36  37  38  39  40  41  42  43  44  45  46  47  48  49  50  51  52  53  54  55  56  57  58  59  60  61  62  63  64  65  66  67  68  69  70  71  72  73  74  75  76  77  78  79  80  81  82  83  84  85  86  87  88  89  90  91  92  93  94  95  96  97  98  99  100  101  102  103  104  105  106  107  108  109  110  111  112  113  114  115  116  117  118  119  120  121  122  123  124  125  126  127  128  129  130  131  132  133  134  135  136  137  138  139  140  141  142  143  144  145  146  147  148  149  150  151  152  153  154  155  156  157  158  159  160  161  162  163  164  165  166  167  168  169  170  171  172  173  174  175  176  177  178  179  180  181  182  183  184  185  186  187  188  189  190  191  192  193  194  195  196  197  198  199  200  201  202  203  204  205  206  207  208  209  210  211  212  213  214  215  216  217  218  219  220  221  222  223  224  225  226  227  228  229  230  231  232  233  234  235  236  237  238  239  240  241  242  243  244  245  246  247  248  249  250  251  252  
            </DataArray>
            <DataArray type="Float64" Name="ux" NumberOfComponents="1" format="ascii">
               0.0000000e+00    0.0000000e+00    0.0000000e+00   -3.2794432e-04    0.0000000e+00    0.0000000e+00   -7.5328373e-04   -1.0398366e-04    0.0000000e+00   -3.0184229e-04    0.0000000e+00   -1.1342515e-03   -3.2794432e-04    0.0000000e+00   -7.5593340e-04   -2.5158908e-04    1.0398366e-04    0.0000000e+00   -9.4003721e-05   -1.4209471e-03    0.0000000e+00   -7.5328373e-04    3.2794432e-04    0.0000000e+00   -3.7969969e-04   -1.1493159e-03   -1.0398366e-04    2.5158908e-04    9.4003721e-05   -2.5309707e-04    0.0000000e+00   -1.6271087e-03   -1.1342515e-03    7.5328373e-04   -4.7366720e-04    3.7969969e-04   -2.5158908e-04    3.0184229e-04    1.0398366e-04   -1.4311533e-03   -3.8358700e-04    2.5309707e-04   -1.4209471e-03    3.2794432e-04   -1.7878589e-03    1.1342515e-03    7.5593340e-04    2.5158908e-04   -5.4002664e-04   -3.7969969e-04   -1.6319698e-03    4.7366720e-04   -4.7766152e-04    3.8358700e-04   -1.9211972e-03    7.5328373e-04   -1.6271087e-03    1.4209471e-03   -4.7366720e-04   -1.7906151e-03    1.1493159e-03    3.7969969e-04   -5.9375406e-04    5.4002664e-04   -5.4262165e-04    4.7766152e-04    1.6271087e-03   -1.7878589e-03   -2.0376772e-03    1.1342515e-03    5.9375406e-04    4.7366720e-04   -5.4002664e-04    1.4311533e-03   -1.9225187e-03   -6.3887058e-04    5.4262165e-04   -5.9527345e-04    1.7878589e-03   -1.9211972e-03   -2.1445903e-03    1.4209471e-03   -6.7817664e-04   -2.0382833e-03   -5.9375406e-04    1.6319698e-03    5.4002664e-04    6.3887058e-04    5.9527345e-04   -6.3972006e-04    1.9211972e-03   -2.2421025e-03    1.6271087e-03   -2.0376772e-03    5.9375406e-04    6.7817664e-04   -2.1450191e-03   -7.1378041e-04    1.7906151e-03   -6.3887058e-04    6.3972006e-04   -6.7856011e-04   -2.1445903e-03   -2.3303423e-03    2.0376772e-03    1.7878589e-03    6.3887058e-04   -6.7817664e-04   -2.2425542e-03    7.1378041e-04   -7.4629276e-04    1.9225187e-03   -7.1405474e-04    6.7856011e-04    2.1445903e-03   -2.2421025e-03    1.9211972e-03   -2.4092929e-03    6.7817664e-04   -7.7570381e-04    7.4629276e-04    2.0382833e-03   -7.1378041e-04   -2.3307938e-03   -7.4657594e-04    7.1405474e-04    2.2421025e-03   -2.4789553e-03   -2.3303423e-03    2.0376772e-03    2.1450191e-03    7.1378041e-04    7.7570381e-04   -8.0202112e-04   -2.4097445e-03   -7.4629276e-04   -7.7598903e-04    7.4657594e-04   -2.4092929e-03    2.3303423e-03    2.1445903e-03   -2.5393295e-03   -2.4794070e-03    7.4629276e-04    2.2425542e-03   -7.7570381e-04   -8.2524191e-04    8.0202112e-04    7.7598903e-04   -8.0230576e-04   -2.4789553e-03   -2.5904153e-03    2.2421025e-03    2.4092929e-03   -8.4536657e-04    7.7570381e-04   -2.5397809e-03   -8.0202112e-04    2.3307938e-03    8.2524191e-04    8.0230576e-04   -8.2552660e-04   -2.6322128e-03    2.4789553e-03   -2.5393295e-03    2.3303423e-03   -8.6239516e-04    2.4097445e-03    8.4536657e-04   -2.5908668e-03   -8.2524191e-04    8.0202112e-04   -8.4565132e-04    8.2552660e-04   -2.5904153e-03    2.5393295e-03   -2.6647220e-03    2.4092929e-03    2.4794070e-03    8.2524191e-04   -8.7632786e-04   -2.6326643e-03   -8.4536657e-04    8.6239516e-04    8.4565132e-04   -8.6267991e-04   -2.6879341e-03   -2.6322128e-03    2.4789553e-03    2.5904153e-03   -8.8716333e-04   -8.6239516e-04   -2.6651735e-03    2.5397809e-03    8.7632786e-04    8.4536657e-04    8.6267991e-04   -8.7661226e-04   -2.7019281e-03   -2.6647220e-03    2.6322128e-03    2.5393295e-03   -8.7632786e-04    8.6239516e-04   -8.9490268e-04   -2.6884021e-03    8.8716333e-04    2.5908668e-03    8.7661226e-04   -8.8744919e-04   -2.7067107e-03   -2.6879341e-03    2.5904153e-03    2.6647220e-03   -8.8716333e-04   -8.9957286e-04   -2.7022604e-03    8.9490268e-04    2.6326643e-03    8.7632786e-04   -8.9519186e-04    8.8744919e-04   -9.0117735e-04    2.6879341e-03   -2.7019281e-03   -2.7068914e-03    2.6322128e-03    8.9957286e-04    8.8716333e-04    2.6651735e-03   -8.9490268e-04    8.9519186e-04   -8.9980091e-04   -2.7067107e-03    2.7019281e-03    9.0117735e-04    2.6647220e-03   -9.0134260e-04    2.6884021e-03   -8.9957286e-04    8.9490268e-04    8.9980091e-04    2.7067107e-03   -9.0117735e-04    2.6879341e-03    8.9957286e-04    2.7022604e-03    9.0134260e-04    2.7068914e-03    9.0117735e-04    2.7019281e-03    2.7067107e-03
            </DataArray>
            <DataArray type="Float64" Name="fx" NumberOfComponents="1" format="ascii">
               2.8192923e+02    5.0988339e+02    2.4248634e+02   -2.4753394e-05    2.8192923e+02   -2.4248634e+02   -1.7197854e-03   -2.0857165e-03    4.2915915e+02    2.8786128e-03   -2.8192923e+02   -1.6121402e-03   -2.4753394e-05    2.4248634e+02   -3.8740875e-03    1.7290427e-03    2.0857165e-03   -4.2915915e+02    5.3075765e-04    2.0437590e-04   -2.4248634e+02   -1.7197854e-03    2.4753394e-05   -5.0988339e+02    2.3832177e-03   -4.7528637e-03   -2.0857165e-03   -1.7290427e-03   -5.3075765e-04    4.0868339e-03   -2.8192923e+02    2.8335158e-05   -1.6121402e-03    1.7197854e-03   -5.4524855e-05   -2.3832177e-03    1.7290427e-03   -2.8786128e-03    2.0857165e-03    1.1661720e-04    2.1696712e-03   -4.0868339e-03    2.0437590e-04    2.4753394e-05    1.3974482e-06    1.6121402e-03    3.8740875e-03   -1.7290427e-03   -1.5609949e-05    2.3832177e-03    1.6837861e-05    5.4524855e-05   -9.7849744e-04   -2.1696712e-03    7.8871039e-07    1.7197854e-03    2.8335158e-05   -2.0437590e-04   -5.4524855e-05   -8.3048762e-06    4.7528637e-03   -2.3832177e-03   -4.3702421e-08    1.5609949e-05   -6.6119581e-05    9.7849744e-04   -2.8335158e-05    1.3974480e-06   -2.1649349e-14    1.6121402e-03    4.3702364e-08    5.4524855e-05   -1.5609949e-05   -1.1661720e-04   -1.3136845e-06   -2.6609697e-09    6.6119581e-05    3.7831401e-06   -1.3974482e-06    7.8871045e-07   -2.3092639e-14   -2.0437590e-04   -3.5138559e-14    1.0991208e-14   -4.3702375e-08   -1.6837861e-05    1.5609949e-05    2.6609834e-09   -3.7831403e-06   -3.3810380e-07   -7.8871039e-07    3.1086245e-15   -2.8335158e-05    0.0000000e+00    4.3702364e-08    3.1696867e-14    5.4400928e-15    2.4480418e-14    8.3048762e-06   -2.6610194e-09    3.3810377e-07    2.2121194e-14    1.3322676e-15   -3.3306691e-16    2.4535929e-14   -1.3974480e-06    2.6609543e-09   -3.7331249e-14   -1.6597834e-14    2.7700064e-14   -2.5202063e-14    1.3136845e-06    5.0182081e-14    5.9036109e-14    4.6185278e-14   -1.6764368e-14   -7.8871045e-07   -9.2148511e-15    6.9222406e-14   -6.0451644e-14   -2.2815083e-14    5.0626170e-14   -3.7386760e-14    2.4424907e-15   -4.4408921e-14   -3.6387560e-14   -4.4630966e-14   -3.8358206e-14   -6.4948047e-15    1.1102230e-16   -4.1300297e-14    4.6546100e-14    3.0947467e-14    6.9610984e-14   -3.1030734e-14    3.4611203e-14    6.3005157e-14   -2.3148150e-14    1.8762769e-14    3.8247183e-14   -4.9515947e-14    1.6431301e-14    9.6034292e-15    2.8560487e-14    7.1276318e-14    3.5277337e-14    1.3739010e-14    3.2696068e-14   -6.2422290e-14    3.3029135e-14    1.1779466e-13   -3.3473224e-14    8.9317442e-14   -3.6082248e-15   -3.2598924e-14   -1.1707302e-13   -3.0253577e-14   -5.4956040e-15   -3.0531133e-14    6.4309669e-14   -5.8009153e-15   -1.6191215e-13    4.6851412e-14   -5.9396932e-15   -5.9174887e-14    1.6653345e-14    2.2273849e-14    7.1942452e-14   -3.4028336e-14    1.0008661e-13   -5.5844218e-14    1.4627188e-14    1.5717982e-13    5.2152727e-14   -4.7212234e-14    1.9817481e-14   -1.2176371e-13    4.8738791e-14    1.5643042e-13   -6.3199446e-14    1.1088352e-14    1.1407542e-14    4.8669402e-14   -7.0540795e-14   -7.8076434e-14    7.9186657e-14   -6.9902417e-14    2.2065683e-14   -6.3282712e-15   -2.0317081e-14    9.4813046e-14   -9.2009733e-15   -7.4468209e-14   -3.1086245e-14    5.4144189e-14    2.6700864e-14   -2.5895952e-13   -1.3003487e-13    7.9651563e-14   -1.1213253e-14   -4.8044901e-14   -2.9976022e-15   -4.7170601e-14   -6.1312067e-14    2.1399549e-14   -7.3191453e-14    7.6993967e-14   -5.7731597e-15   -1.9383106e-13    9.8310249e-14   -1.4309951e-14    2.6520453e-14    6.3976602e-14   -1.0397239e-13   -1.1257661e-13    1.0285522e-13    1.1182721e-13    5.6829541e-15    1.6725510e-13   -9.6964103e-14    1.9764052e-13   -2.2391811e-14    1.9852175e-14    7.9380946e-15    7.0145278e-14   -4.7058494e-14    5.1209037e-14   -1.5041787e-13   -1.1403378e-13   -5.2985394e-14    1.1327050e-13    1.5480152e-13    9.0233376e-14    4.5395111e-14   -4.1688875e-14    2.1864455e-14   -3.9995784e-14   -1.1794732e-13    6.1714522e-14   -1.0095397e-13    2.3588423e-13   -1.5076829e-13    5.1284714e-14   -9.1635033e-14    2.5215940e-14   -4.2726239e-15   -1.1649709e-13    1.0927370e-13    4.6286759e-15    1.1589341e-13   -9.9316388e-14   -4.8240925e-14
            </DataArray>
            <DataArray type="Float64" Name="uy" NumberOfComponents="1" format="ascii">
               0.0000000e+00    0.0000000e+00    0.0000000e+00   -1.6048433e-04    0.0000000e+00    0.0000000e+00   -1.7847032e-04   -3.9264123e-05    0.0000000e+00   -6.1552726e-18    0.0000000e+00   -1.2818949e-04    1.6048433e-04    0.0000000e+00   -8.5200199e-17   -4.3854630e-05    3.9264123e-05    0.0000000e+00   -1.7881598e-17   -7.8197132e-05    0.0000000e+00    1.7847032e-04    1.6048433e-04    0.0000000e+00   -3.2436379e-05   -2.2652157e-16    3.9264123e-05    4.3854630e-05   -1.6067535e-17   -9.2199331e-17    0.0000000e+00   -4.8339443e-05    1.2818949e-04    1.7847032e-04   -2.0676980e-05    3.2436379e-05    4.3854630e-05   -1.1224367e-18   -3.9264123e-05   -4.0567592e-16   -2.2998721e-16   -8.6113022e-17    7.8197132e-05   -1.6048433e-04   -3.2756929e-05    1.2818949e-04   -6.6987852e-17   -4.3854630e-05   -1.3267327e-05    3.2436379e-05   -6.0408606e-16    2.0676980e-05   -4.0204816e-16   -2.2046818e-16   -2.3815432e-05   -1.7847032e-04    4.8339443e-05    7.8197132e-05    2.0676980e-05   -8.0965248e-16   -1.9820106e-16   -3.2436379e-05   -1.0229922e-05    1.3267327e-05   -5.9804242e-16   -3.9158233e-16    4.8339443e-05    3.2756929e-05   -2.0508049e-05   -1.2818949e-04    1.0229922e-05   -2.0676980e-05    1.3267327e-05   -3.7408403e-16   -1.0219703e-15   -8.2616862e-06   -5.8755182e-16   -8.0282407e-16    3.2756929e-05    2.3815432e-05   -1.8904833e-05   -7.8197132e-05   -7.2705557e-06   -1.2369520e-15    1.0229922e-05   -5.7235176e-16   -1.3267327e-05    8.2616862e-06   -7.9262437e-16   -1.0138602e-15    2.3815432e-05   -1.7186949e-05   -4.8339443e-05    2.0508049e-05   -1.0229922e-05    7.2705557e-06   -1.4493944e-15   -6.6752873e-06   -7.7912827e-16    8.2616862e-06   -1.0040945e-15   -1.2279332e-15    1.8904833e-05   -1.5468499e-05    2.0508049e-05   -3.2756929e-05   -8.2616862e-06    7.2705557e-06   -1.6625203e-15    6.6752873e-06   -6.0790030e-06   -9.9320288e-16   -1.4424354e-15   -1.2190489e-15    1.8904833e-05    1.7186949e-05   -2.3815432e-05   -1.3749400e-05   -7.2705557e-06   -5.4686789e-06    6.0790030e-06   -1.2093811e-15    6.6752873e-06   -1.8758709e-15   -1.6556805e-15   -1.4339475e-15    1.7186949e-05   -1.2030815e-05    1.5468497e-05   -2.0508049e-05   -1.4248408e-15   -6.6752873e-06    5.4686789e-06   -4.8613820e-06   -2.0896968e-15    6.0790030e-06   -1.8700194e-15   -1.6488776e-15    1.3749400e-05    1.5468497e-05   -1.8904833e-05   -1.0312117e-05   -2.3031550e-15   -6.0790030e-06   -1.6416836e-15    5.4686789e-06   -4.2536626e-06    4.8613820e-06   -1.8636728e-15   -2.0840873e-15    1.2030815e-05   -8.5934043e-06   -1.7186949e-05    1.3749400e-05   -3.6460051e-06   -5.4686789e-06   -2.5171272e-15    4.8613820e-06   -1.8576508e-15    4.2536626e-06   -2.0787527e-15   -2.2978327e-15   -6.8747986e-06    1.2030815e-05    1.0312117e-05   -1.5468499e-05   -3.0383337e-06   -2.0730259e-15    3.6460051e-06   -2.7314504e-15    4.2536626e-06   -4.8613820e-06   -2.5121741e-15   -2.2931103e-15    8.5934043e-06    1.0312117e-05   -5.1568090e-06   -1.3749400e-05   -2.2898515e-15   -4.2536626e-06   -2.4306162e-06   -2.9442046e-15    3.6460051e-06    3.0383337e-06   -2.5085541e-15   -2.7279867e-15   -3.4338047e-06    6.8747986e-06   -1.2030815e-05    8.5934043e-06   -1.8237714e-06    3.0383337e-06   -3.1580635e-15   -2.5049653e-15    2.4306162e-06   -3.6460051e-06   -2.7248078e-15   -2.9426579e-15   -1.6663249e-06    5.1568090e-06    6.8747986e-06   -1.0312117e-05    2.4306162e-06   -3.0383337e-06   -1.2123830e-06   -3.3725438e-15    1.8237714e-06   -2.7200708e-15   -2.9395080e-15   -3.1575235e-15   -6.0721061e-07    3.4338047e-06   -8.5934043e-06    5.1568090e-06    1.8237714e-06   -5.8569759e-07   -3.5871820e-15    1.2123829e-06   -2.9374391e-15   -2.4306162e-06   -3.3733074e-15   -3.1565682e-15   -2.4969509e-07    3.4338047e-06    1.6663249e-06   -3.8010256e-15   -6.8747986e-06    5.8569759e-07   -1.8237714e-06   -3.1525480e-15    1.2123829e-06   -3.3721743e-15   -3.5871053e-15    6.0721061e-07    1.6663249e-06    2.4969509e-07   -5.1568090e-06   -3.8015470e-15   -3.3679934e-15    5.8569759e-07   -1.2123830e-06   -3.5863951e-15    6.0721061e-07    2.4969509e-07   -3.4338047e-06   -5.8569759e-07   -3.5845833e-15   -3.8017824e-15   -3.8006610e-15   -2.4969509e-07   -1.6663249e-06   -6.0721061e-07
            </DataArray>
            <DataArray type="Float64" Name="fy" NumberOfComponents="1" format="ascii">
               1.0749141e+02   -2.8960390e-11    8.5908607e+01    1.9854154e-03   -1.0749141e+02   -8.5908607e+01    3.8987510e-03   -2.0226731e-03   -1.8415450e-11   -9.4070585e-14   -1.0749141e+02    2.7413375e-03   -1.9854154e-03   -8.5908607e+01    8.9924596e-14   -3.3098113e-04    2.0226731e-03   -1.8237134e-11   -1.0808056e-12    3.9939830e-04    8.5908607e+01   -3.8987510e-03   -1.9854154e-03   -2.4608204e-11   -2.3079629e-03    9.3348940e-14    2.0226731e-03    3.3098113e-04   -1.0430927e-12   -1.1730616e-12    1.0749141e+02    3.5728026e-05   -2.7413375e-03   -3.8987510e-03   -8.5690728e-04    2.3079629e-03    3.3098113e-04   -5.7037708e-14   -2.0226731e-03    8.0550150e-14   -1.5346752e-13   -1.1242535e-12   -3.9939830e-04    1.9854154e-03    6.4214169e-06   -2.7413375e-03    7.0821821e-14   -3.3098113e-04   -4.8594527e-05    2.3079629e-03    2.8959474e-14    8.5690728e-04   -7.4898421e-14   -1.6139867e-13   -1.4168990e-07    3.8987510e-03   -3.5728026e-05   -3.9939830e-04    8.5690728e-04   -8.1627413e-14    6.3539451e-14   -2.3079629e-03   -6.0652860e-07    4.8594527e-05    1.8179902e-14   -4.9973914e-14   -3.5728026e-05   -6.4214169e-06   -2.4872899e-14    2.7413375e-03    6.0652854e-07   -8.5690728e-04    4.8594527e-05    1.0866308e-14   -4.5095871e-14   -1.1455977e-07    7.9727891e-14    9.4604879e-14   -6.4214169e-06    1.4168988e-07   -1.4112843e-14    3.9939830e-04   -9.0155314e-14   -2.9050547e-14    6.0652854e-07    7.5009443e-15   -4.8594527e-05    1.1455973e-07   -1.4094628e-14    8.4737772e-14    1.4168982e-07   -2.5748501e-14    3.5728026e-05   -1.9696484e-14   -6.0652854e-07    5.7509553e-14   -4.7765611e-15   -4.6683143e-14    3.6394499e-14    1.1455971e-07   -3.0165107e-14   -3.7558498e-14    3.2998777e-14   -1.6306401e-16   -6.3387229e-14    6.4214169e-06   -1.1455974e-07    9.0023475e-14   -3.5158942e-14    5.8258953e-14   -4.1119885e-14    8.7855070e-14    4.7097742e-16    5.8529570e-15   -2.1431641e-14    7.4818624e-15   -1.4168981e-07    1.9153082e-14   -8.5027471e-14   -9.0415522e-14    8.0773929e-14    1.1924836e-13   -3.8302694e-15    5.7518660e-14    2.3178508e-14    3.9499654e-14   -7.0372961e-14    5.7571135e-15   -6.3349499e-14    8.4703945e-14    4.3594035e-14   -3.6174189e-14    1.6788654e-14   -5.5847688e-14   -1.2653073e-14   -2.1588634e-14   -7.0483550e-14    1.2789249e-13   -8.5638094e-14   -8.0851558e-14   -3.6823843e-14   -8.1407971e-14   -8.5573909e-15   -9.6404655e-14    1.9656585e-14   -3.9671391e-14   -1.6099969e-14   -3.3975427e-14    2.2550017e-13   -5.1399857e-15   -6.9484349e-15   -1.7741451e-14    2.3750533e-14    1.3161781e-14   -7.1558211e-14   -2.8689724e-14    1.2004720e-14   -7.9623808e-16    5.4845017e-14    4.8554043e-14    7.0899883e-14   -1.3738923e-13    5.2195227e-14    9.1342732e-14    9.7377401e-14   -1.3964524e-15    1.5016634e-14    2.6529993e-14    1.2989046e-13   -3.3346589e-14    3.8961889e-14    8.6911381e-14    1.1501477e-13    1.1055740e-13   -1.8003828e-14    9.7186148e-14   -2.9988165e-14   -3.2080241e-14    3.4030938e-14   -1.8883332e-14    8.6832885e-14    3.9335288e-14   -9.2123358e-14   -5.0771019e-14    2.2289462e-14    1.3825096e-13   -9.7196123e-14   -4.6199589e-14   -9.7532659e-14    3.6892798e-14   -7.0469238e-14   -1.1024862e-13    9.1341865e-14   -1.7648253e-13   -2.9024960e-13    7.0947154e-14    1.4109503e-13    6.2188536e-14    9.9207101e-14    6.8186342e-14    5.8701308e-14   -1.2767131e-13    1.3134936e-13    1.5078216e-14   -3.2262821e-14   -1.7781783e-14   -1.1649584e-13   -2.9596551e-14   -3.9603737e-15   -1.2448246e-13    2.7619468e-14    3.3863103e-14   -7.5803079e-14    8.3420684e-14    5.8591153e-14   -1.1864576e-13    1.9794930e-14   -8.7121174e-14   -9.1823250e-15    1.6573982e-14    2.1918600e-13   -1.7837316e-13   -7.0450807e-14    1.5430062e-13    9.3356746e-14   -3.8009933e-14   -1.1954543e-13    1.0907247e-13    2.0219449e-13    1.1838143e-13    3.2225307e-14   -1.0973557e-13   -3.4592229e-14   -2.2074065e-14   -4.6036959e-14    3.6672054e-14   -1.1271930e-13    9.6173124e-14   -1.3899038e-13   -4.7497162e-14   -4.1786670e-14   -1.0366165e-13   -3.9411122e-14    1.3698027e-14    6.4468830e-14    1.6428482e-14    2.8344514e-14   -7.9629351e-14    1.3034533e-13    8.3436079e-14    1.5232607e-14   -1.3850048e-13
            </DataArray>
            <DataArray type="Float64" Name="uz" NumberOfComponents="1" format="ascii">