<?xml version="1.0"?>
<VTKFile type="UnstructuredGrid" version="0.1" byte_order="LittleEndian">
   <UnstructuredGrid>
      <Piece NumberOfPoints="252" NumberOfCells="120">
         <Points>
            <DataArray type="Float64" NumberOfComponents="3" format="ascii">
               0.0000000e+00     0.0000000e+00     0.0000000e+00
               0.0000000e+00     5.0000000e-02     0.0000000e+00
               0.0000000e+00     0.0000000e+00     3.3333330e-02
               5.0000000e-02     0.0000000e+00     0.0000000e+00
               0.0000000e+00     1.0000000e-01     0.0000000e+00
               0.0000000e+00     0.0000000e+00     6.6666670e-02
               1.0000000e-01     0.0000000e+00     0.0000000e+00
               5.0000000e-02     0.0000000e+00     3.3333330e-02
               0.0000000e+00     5.0000000e-02     3.3333330e-02
               5.0000000e-02     5.0000000e-02     0.0000000e+00
               0.0000000e+00     0.0000000e+00     1.0000000e-01
               1.5000000e-01     0.0000000e+00     0.0000000e+00
               5.0000000e-02     1.0000000e-01     0.0000000e+00
               0.0000000e+00     1.0000000e-01     3.3333330e-02
               1.0000000e-01     5.0000000e-02     0.0000000e+00
               1.0000000e-01     0.0000000e+00     3.3333330e-02
               5.0000000e-02     0.0000000e+00     6.6666670e-02
               0.0000000e+00     5.0000000e-02     6.6666670e-02
               5.0000000e-02     5.0000000e-02     3.3333330e-02
               2.0000000e-01     0.0000000e+00     0.0000000e+00
               0.0000000e+00     1.0000000e-01     6.6666670e-02
               1.0000000e-01     1.0000000e-01     0.0000000e+00
               5.0000000e-02     0.0000000e+00     1.0000000e-01
               0.0000000e+00     5.0000000e-02     1.0000000e-01
               1.5000000e-01     0.0000000e+00     3.3333330e-02
               1.5000000e-01     5.0000000e-02     0.0000000e+00
               5.0000000e-02     1.0000000e-01     3.3333330e-02
               1.0000000e-01     0.0000000e+00     6.6666670e-02
               5.0000000e-02     5.0000000e-02     6.6666670e-02
               1.0000000e-01     5.0000000e-02     3.3333330e-02
               0.0000000e+00     1.0000000e-01     1.0000000e-01
               2.5000000e-01     0.0000000e+00     0.0000000e+00
               1.5000000e-01     1.0000000e-01     0.0000000e+00
               1.0000000e-01     0.0000000e+00     1.0000000e-01
               2.0000000e-01     0.0000000e+00     3.3333330e-02
               1.5000000e-01     0.0000000e+00     6.6666670e-02
               1.0000000e-01     1.0000000e-01     3.3333330e-02
               5.0000000e-02     5.0000000e-02     1.0000000e-01
               5.0000000e-02     1.0000000e-01     6.6666670e-02
               2.0000000e-01     5.0000000e-02     0.0000000e+00
               1.5000000e-01     5.0000000e-02     3.3333330e-02
               1.0000000e-01     5.0000000e-02     6.6666670e-02
               2.0000000e-01     1.0000000e-01     0.0000000e+00
               5.0000000e-02     1.0000000e-01     1.0000000e-01
               3.0000000e-01     0.0000000e+00     0.0000000e+00
               1.5000000e-01     0.0000000e+00     1.0000000e-01
               1.0000000e-01     5.0000000e-02     1.0000000e-01
               1.0000000e-01     1.0000000e-01     6.6666670e-02
               2.5000000e-01     0.0000000e+00     3.3333330e-02
               1.5000000e-01     1.0000000e-01     3.3333330e-02
               2.5000000e-01     5.0000000e-02     0.0000000e+00
               2.0000000e-01     0.0000000e+00     6.6666670e-02
               2.0000000e-01     5.0000000e-02     3.3333330e-02
               1.5000000e-01     5.0000000e-02     6.6666670e-02
               3.5000000e-01     0.0000000e+00     0.0000000e+00
               1.0000000e-01     1.0000000e-01     1.0000000e-01
               2.5000000e-01     1.0000000e-01     0.0000000e+00
               2.0000000e-01     0.0000000e+00     1.0000000e-01
               2.0000000e-01     1.0000000e-01     3.3333330e-02
               3.0000000e-01     5.0000000e-02     0.0000000e+00
               1.5000000e-01     5.0000000e-02     1.0000000e-01
               1.5000000e-01     1.0000000e-01     6.6666670e-02
               3.0000000e-01     0.0000000e+00     3.3333330e-02
               2.5000000e-01     0.0000000e+00     6.6666670e-02
               2.5000000e-01     5.0000000e-02     3.3333330e-02
               2.0000000e-01     5.0000000e-02     6.6666670e-02
               2.5000000e-01     0.0000000e+00     1.0000000e-01
               3.0000000e-01     1.0000000e-01     0.0000000e+00
               4.0000000e-01     0.0000000e+00     0.0000000e+00
               1.5000000e-01     1.0000000e-01     1.0000000e-01
               3.0000000e-01     0.0000000e+00     6.6666670e-02
               2.0000000e-01     1.0000000e-01     6.6666670e-02
               2.5000000e-01     1.0000000e-01     3.3333330e-02
               2.0000000e-01     5.0000000e-02     1.0000000e-01
               3.5000000e-01     5.0000000e-02     0.0000000e+00
               3.5000000e-01     0.0000000e+00     3.3333330e-02
               2.5000000e-01     5.0000000e-02     6.6666670e-02
               3.0000000e-01     5.0000000e-02     3.3333330e-02
               3.0000000e-01     0.0000000e+00     1.0000000e-01
               3.5000000e-01     1.0000000e-01     0.0000000e+00
               4.5000000e-01     0.0000000e+00     0.0000000e+00
               2.0000000e-01     1.0000000e-01     1.0000000e-01
               4.0000000e-01     0.0000000e+00     3.3333330e-02
               4.0000000e-01     5.0000000e-02     0.0000000e+00
               3.0000000e-01     1.0000000e-01     3.3333330e-02
               2.5000000e-01     5.0000000e-02     1.0000000e-01
               2.5000000e-01     1.0000000e-01     6.6666670e-02
               3.5000000e-01     0.0000000e+00     6.6666670e-02
               3.0000000e-01     5.0000000e-02     6.6666670e-02
               3.5000000e-01     5.0000000e-02     3.3333330e-02
               3.5000000e-01     0.0000000e+00     1.0000000e-01
               5.0000000e-01     0.0000000e+00     0.0000000e+00
               2.5000000e-01     1.0000000e-01     1.0000000e-01
               4.0000000e-01     1.0000000e-01     0.0000000e+00
               3.0000000e-01     1.0000000e-01     6.6666670e-02
               4.0000000e-01     0.0000000e+00     6.6666670e-02
               4.5000000e-01     5.0000000e-02     0.0000000e+00
               4.5000000e-01     0.0000000e+00     3.3333330e-02
               3.0000000e-01     5.0000000e-02     1.0000000e-01
               3.5000000e-01     1.0000000e-01     3.3333330e-02
               3.5000000e-01     5.0000000e-02     6.6666670e-02
               4.0000000e-01     5.0000000e-02     3.3333330e-02
               4.5000000e-01     1.0000000e-01     0.0000000e+00
               5.5000000e-01     0.0000000e+00     0.0000000e+00
               4.0000000e-01     0.0000000e+00     1.0000000e-01
               3.0000000e-01     1.0000000e-01     1.0000000e-01
               3.5000000e-01     1.0000000e-01     6.6666670e-02
               4.0000000e-01     1.0000000e-01     3.3333330e-02
               5.0000000e-01     5.0000000e-02     0.0000000e+00
               4.5000000e-01     0.0000000e+00     6.6666670e-02
               5.0000000e-01     0.0000000e+00     3.3333330e-02
               3.5000000e-01     5.0000000e-02     1.0000000e-01
               4.5000000e-01     5.0000000e-02     3.3333330e-02
               4.0000000e-01     5.0000000e-02     6.6666670e-02
               4.5000000e-01     0.0000000e+00     1.0000000e-01
               5.0000000e-01     1.0000000e-01     0.0000000e+00
               3.5000000e-01     1.0000000e-01     1.0000000e-01
               6.0000000e-01     0.0000000e+00     0.0000000e+00
               4.0000000e-01     1.0000000e-01     6.6666670e-02
               5.5000000e-01     0.0000000e+00     3.3333330e-02
               5.0000000e-01     0.0000000e+00     6.6666670e-02
               4.0000000e-01     5.0000000e-02     1.0000000e-01
               4.5000000e-01     1.0000000e-01     3.3333330e-02
               5.5000000e-01     5.0000000e-02     0.0000000e+00
               5.0000000e-01     5.0000000e-02     3.3333330e-02
               4.5000000e-01     5.0000000e-02     6.6666670e-02
               5.0000000e-01     0.0000000e+00     1.0000000e-01
               6.5000000e-01     0.0000000e+00     0.0000000e+00
               5.5000000e-01     1.0000000e-01     0.0000000e+00
               4.0000000e-01     1.0000000e-01     1.0000000e-01
               4.5000000e-01     5.0000000e-02     1.0000000e-01
               4.5000000e-01     1.0000000e-01     6.6666670e-02
               5.5000000e-01     0.0000000e+00     6.6666670e-02
               6.0000000e-01     0.0000000e+00     3.3333330e-02
               6.0000000e-01     5.0000000e-02     0.0000000e+00
               5.0000000e-01     1.0000000e-01     3.3333330e-02
               5.5000000e-01     5.0000000e-02     3.3333330e-02
               5.0000000e-01     5.0000000e-02     6.6666670e-02
               6.0000000e-01     1.0000000e-01     0.0000000e+00
               5.5000000e-01     0.0000000e+00     1.0000000e-01
               4.5000000e-01     1.0000000e-01     1.0000000e-01
               7.0000000e-01     0.0000000e+00     0.0000000e+00
               6.5000000e-01     5.0000000e-02     0.0000000e+00
               5.0000000e-01     1.0000000e-01     6.6666670e-02
               5.0000000e-01     5.0000000e-02     1.0000000e-01
               5.5000000e-01     1.0000000e-01     3.3333330e-02
               6.5000000e-01     0.0000000e+00     3.3333330e-02
               6.0000000e-01     0.0000000e+00     6.6666670e-02
               5.5000000e-01     5.0000000e-02     6.6666670e-02
[...]
         <PointData>
            <DataArray type="Int32" Name="node-id" NumberOfComponents="1" format="ascii">
               1  2  3  4  5  6  7  8  9  10  11  12  13  14  15  16  17  18  19  20  21  22  23  24  25  26  27  28  29  30  31  32  33  34  35  36  37  38  39  40  41  42  43  44  45  46  47  48  49  50  51  52  53  54  55  56  57  58  59  60  61  62  63  64  65  66  67  68  69  70  71  72  73  74  75  76  77  78  79  80  81  82  83  84  85  86  87  88  89  90  91  92  93  94  95  96  97  98  99  100  101  102  103  104  105  106  107  108  109  110  111  112  113  114  115  116  117  118  119  120  121  122  123  124  125  126  127  128  129  130  131  132  133  134  135  136  137  138  139  140  141  142  143  144  145  146  147  148  149  150  151  152  153  154  155  156  157  158  159  160  161  162  163  164  165  166  167  168  169  170  171  172  173  174  175  176  177  178  179  180  181  182  183  184  185  186  187  188  189  190  191  192  193  194  195  196  197  198  199  200  201  202  203  204  205  206  207  208  209  210  211  212  213  214  215  216  217  218  219  220  221  222  223  224  225  226  227  228  229  230  231  232  233  234  235  236  237  238  239  240  241  242  243  244  245  246  247  248  249  250  251  252  
            </DataArray>
            <DataArray type="Float64" Name="ux" NumberOfComponents="1" format="ascii">
               0.0000000e+00    0.0000000e+00    0.0000000e+00   -1.4312698e-04    0.0000000e+00    0.0000000e+00   -2.7969448e-04   -4.6419667e-05    0.0000000e+00   -1.4000050e-04    0.0000000e+00   -4.1090575e-04   -1.4312698e-04    0.0000000e+00   -2.8023007e-04   -9.2612150e-05    4.6419667e-05    0.0000000e+00   -4.4293531e-05   -5.3444324e-04    0.0000000e+00   -2.7969448e-04    1.4312698e-04    0.0000000e+00   -1.3603921e-04   -4.1130470e-04   -4.6419667e-05    9.2612150e-05    4.4293531e-05   -9.2919698e-05    0.0000000e+00   -6.5049861e-04   -4.1090575e-04    2.7969448e-04   -1.7729033e-04    1.3603921e-04   -9.2612150e-05    1.4000050e-04    4.6419667e-05   -5.3480529e-04   -1.3631297e-04    9.2919698e-05   -5.3444324e-04    1.4312698e-04   -7.5906329e-04    4.1090575e-04    2.8023007e-04    9.2612150e-05   -2.1596337e-04   -1.3603921e-04   -6.5086118e-04    1.7729033e-04   -1.7751030e-04    1.3631297e-04   -8.6014211e-04    2.7969448e-04   -6.5049861e-04    5.3444324e-04   -1.7729033e-04   -7.5942773e-04    4.1130470e-04    1.3603921e-04   -2.5215346e-04    2.1596337e-04   -2.1619434e-04    1.7751030e-04    6.5049861e-04   -7.5906329e-04   -9.5373328e-04    4.1090575e-04    2.5215346e-04    1.7729033e-04   -2.1596337e-04    5.3480529e-04   -8.6050603e-04   -2.8584609e-04    2.1619434e-04   -2.5238268e-04    7.5906329e-04   -8.6014211e-04   -1.0398373e-03    5.3444324e-04   -3.1704322e-04   -9.5409731e-04   -2.5215346e-04    6.5086118e-04    2.1596337e-04    2.8584609e-04    2.5238268e-04   -2.8607566e-04    8.6014211e-04   -1.1184538e-03    6.5049861e-04   -9.5373328e-04    2.5215346e-04    3.1704322e-04   -1.0402013e-03   -3.4574451e-04    7.5942773e-04   -2.8584609e-04    2.8607566e-04   -3.1727270e-04   -1.0398373e-03   -1.1895832e-03    9.5373328e-04    7.5906329e-04    2.8584609e-04   -3.1704322e-04   -1.1188178e-03    3.4574451e-04   -3.7195007e-04    8.6050603e-04   -3.4597403e-04    3.1727270e-04    1.0398373e-03   -1.1184538e-03    8.6014211e-04   -1.2532253e-03    3.1704322e-04   -3.9565985e-04    3.7195007e-04    9.5409731e-04   -3.4574451e-04   -1.1899472e-03   -3.7217958e-04    3.4597403e-04    1.1184538e-03   -1.3093799e-03   -1.1895832e-03    9.5373328e-04    1.0402013e-03    3.4574451e-04    3.9565985e-04   -4.1687387e-04   -1.2535893e-03   -3.7195007e-04   -3.9588936e-04    3.7217958e-04   -1.2532253e-03    1.1895832e-03    1.0398373e-03   -1.3580474e-03   -1.3097440e-03    3.7195007e-04    1.1188178e-03   -3.9565985e-04   -4.3559211e-04    4.1687387e-04    3.9588936e-04   -4.1710338e-04   -1.3093799e-03   -1.3992275e-03    1.1184538e-03    1.2532253e-03   -4.5181462e-04    3.9565985e-04   -1.3584114e-03   -4.1687387e-04    1.1899472e-03    4.3559211e-04    4.1710338e-04   -4.3582162e-04   -1.4329205e-03    1.3093799e-03   -1.3580474e-03    1.1895832e-03   -4.6554132e-04    1.2535893e-03    4.5181462e-04   -1.3995916e-03   -4.3559211e-04    4.1687387e-04   -4.5204413e-04    4.3582162e-04   -1.3992275e-03    1.3580474e-03   -1.4591261e-03    1.2532253e-03    1.3097440e-03    4.3559211e-04   -4.7677240e-04   -1.4332844e-03   -4.5181462e-04    4.6554132e-04    4.5204413e-04   -4.6577083e-04   -1.4778373e-03   -1.4329205e-03    1.3093799e-03    1.3992275e-03   -4.8550690e-04   -4.6554132e-04   -1.4594900e-03    1.3584114e-03    4.7677240e-04    4.5181462e-04    4.6577083e-04   -4.7700168e-04   -1.4891179e-03   -1.4591261e-03    1.4329205e-03    1.3580474e-03   -4.7677240e-04    4.6554132e-04   -4.9174554e-04   -1.4782145e-03    4.8550690e-04    1.3995916e-03    4.7700168e-04   -4.8573731e-04   -1.4929732e-03   -1.4778373e-03    1.3992275e-03    1.4591261e-03   -4.8550690e-04   -4.9551018e-04   -1.4893857e-03    4.9174554e-04    1.4332844e-03    4.7677240e-04   -4.9197866e-04    4.8573731e-04   -4.9680355e-04    1.4778373e-03   -1.4891179e-03   -1.4931187e-03    1.4329205e-03    4.9551018e-04    4.8550690e-04    1.4594900e-03   -4.9174554e-04    4.9197866e-04   -4.9569400e-04   -1.4929732e-03    1.4891179e-03    4.9680355e-04    1.4591261e-03   -4.9693679e-04    1.4782145e-03   -4.9551018e-04    4.9174554e-04    4.9569400e-04    1.4929732e-03   -4.9680355e-04    1.4778373e-03    4.9551018e-04    1.4893857e-03    4.9693679e-04    1.4931187e-03    4.9680355e-04    1.4891179e-03    1.4929732e-03
            </DataArray>
            <DataArray type="Float64" Name="fx" NumberOfComponents="1" format="ascii">
               2.3108733e+02    4.4063617e+02    1.6263940e+02    1.7763568e-15    2.3108733e+02   -1.6263940e+02    4.7073456e-14    9.3258734e-15    2.9979037e+02    9.7699626e-15   -2.3108733e+02    3.7747583e-14    9.7699626e-15    1.6263940e+02    4.8849813e-14    4.5519144e-14    0.0000000e+00   -2.9979037e+02    2.6645353e-15    4.0856207e-14   -1.6263940e+02    2.7533531e-14   -5.3290705e-15   -4.4063617e+02   -2.5535130e-14    1.0480505e-13    1.6653345e-14   -1.3100632e-14   -2.1760371e-14    2.4868996e-14   -2.3108733e+02   -1.0658141e-13   -4.1300297e-14    1.6875390e-14    3.4194869e-14   -1.3322676e-14    2.7311486e-14    5.3290705e-15   -1.1324275e-14   -7.5495166e-15   -5.0182081e-14   -3.1974423e-14    7.6383344e-14    1.2434498e-14   -4.5297099e-14    5.4178884e-14   -2.6645353e-15    4.6629367e-15   -6.4614980e-14    1.7763568e-14    2.4114044e-13   -1.0214052e-14    7.4162898e-14    6.6613381e-15    6.8833828e-14   -2.7533531e-14   -8.7929664e-14    4.0856207e-14   -6.6613381e-16    2.4735769e-13    2.7089442e-14   -5.9285910e-14    1.4166446e-13   -4.6407322e-14   -7.7049478e-14   -1.8851587e-13    5.6399330e-14    1.0613732e-13    2.2071234e-13   -7.9936058e-15    5.8397731e-14   -3.7303494e-14   -3.0198066e-14   -8.9261931e-14    4.6407322e-13   -3.1752379e-14   -9.6589403e-14    2.5535130e-13   -9.8143715e-14    2.7089442e-14   -9.3258734e-14    4.4408921e-16   -2.6312286e-14    1.5099033e-13   -6.2838623e-14   -1.5365487e-13   -9.3258734e-15    3.5527137e-15   -1.2434498e-14    8.2045482e-14   -1.5987212e-14    1.4876989e-13   -6.4392935e-14    9.6367359e-14    2.5313085e-14   -6.8611783e-14   -1.9717561e-13   -7.6605389e-15    6.9722006e-14   -1.4310775e-13    2.8865799e-15   -3.0297986e-13    1.5099033e-14    3.1974423e-14    6.4837025e-14   -1.2256862e-13    2.3758773e-14    1.8429702e-14    4.8494542e-13    8.4821039e-14    2.1549429e-13    1.0658141e-13   -2.2193358e-13    8.3044682e-14    1.6875390e-13    4.4408921e-15   -2.7977620e-14    2.4225066e-13    2.0006219e-13   -4.0212278e-13    1.5354384e-13    1.9717561e-13    1.7119639e-13    5.3379523e-13    7.7693407e-13    3.7725378e-13    1.5321078e-13   -3.7747583e-14    8.1046281e-14   -7.4606987e-14    3.0198066e-14    1.4899193e-13    4.3365311e-13    1.9162449e-13    4.3742787e-13    1.0891288e-13   -4.5641269e-13    1.2234658e-13   -1.4432899e-14    2.1760371e-14   -8.7041485e-14   -8.0158102e-14   -1.0673684e-12    1.3278267e-13    1.5987212e-14   -3.2707170e-13   -1.6586732e-13   -1.8385293e-13    3.4239278e-13    2.9376501e-13   -8.4821039e-14   -3.1463721e-13    2.6201263e-14   -1.5676349e-13    1.1080026e-13   -2.8255176e-13    5.9174887e-13   -1.8329782e-13    4.6584958e-13   -1.2734258e-13   -6.0540462e-13   -3.8125059e-13   -4.5929927e-13   -1.0125234e-13   -1.2567725e-13    1.1435297e-13    2.1604940e-13   -1.9007018e-13    7.9825035e-14    1.9784174e-13   -5.9474647e-13   -8.4376950e-14    4.6063153e-13    1.7230661e-13    1.6231461e-13    1.6586732e-13    1.6109336e-13   -1.8762769e-13    5.5666582e-13    1.3677948e-13    4.8588911e-13   -9.8809849e-14    1.9528823e-13    1.7896795e-13    1.3633539e-13   -3.6737280e-13    5.4745097e-13   -2.8088643e-14    1.2900792e-13   -1.1990409e-14   -8.4232621e-13    7.7937656e-14   -7.8381746e-14    6.2327921e-13   -5.7620575e-14   -4.7728488e-13   -2.8949065e-13   -1.8257063e-12    5.4364846e-13   -3.2840397e-13    3.7803094e-13    8.1490370e-14   -3.6931569e-13   -7.8154150e-13    3.7120307e-13    3.6082248e-15   -6.9319550e-13   -7.5073281e-13   -7.2369888e-13    7.9547480e-13   -7.7060320e-13    9.3369756e-14    2.5202063e-13   -2.1871394e-13   -4.8294702e-14    2.7361446e-13   -1.6556201e-13    5.8359567e-13    3.5238479e-13   -4.3720583e-13    9.5856656e-13    1.0761392e-12    1.8623991e-14   -3.5033088e-13   -5.0265347e-13    9.6438656e-13    2.9887204e-13    5.9272726e-13    8.7382879e-13   -8.5598195e-14    1.1490808e-14   -6.8806072e-13    4.4272919e-13   -5.3744856e-13    6.2486127e-13   -4.0217829e-14   -2.1649349e-14   -5.9632854e-13   -1.5704105e-13   -5.6263327e-13    2.6485064e-13    2.0681443e-12    8.1791345e-14   -8.4190988e-13    2.3669955e-13   -4.1830428e-13    3.8122283e-13   -2.0208835e-13   -6.4717329e-14   -4.7153947e-13    2.1210811e-13    4.1587567e-13
            </DataArray>
            <DataArray type="Float64" Name="uy" NumberOfComponents="1" format="ascii">
               0.0000000e+00    0.0000000e+00    0.0000000e+00   -2.6934844e-05    0.0000000e+00    0.0000000e+00   -2.5103493e-05   -9.6461627e-06    0.0000000e+00    5.0832536e-18    0.0000000e+00   -2.3557091e-05    2.6934844e-05    0.0000000e+00    2.1356612e-17   -8.9633868e-06    9.6461627e-06    0.0000000e+00    5.6549342e-18   -2.2158210e-05    0.0000000e+00    2.5103493e-05    2.6934844e-05    0.0000000e+00   -8.2985971e-06    4.6603452e-17    9.6461627e-06    8.9633868e-06    5.4183337e-18    2.1715648e-17    0.0000000e+00   -2.0783287e-05    2.3557091e-05    2.5103493e-05   -7.8411167e-06    8.2985971e-06    8.9633868e-06    4.3641007e-18   -9.6461627e-06    8.0080315e-17    4.6657705e-17    2.1237449e-17    2.2158210e-05   -2.6934844e-05   -1.9395762e-05    2.3557091e-05    1.9918678e-17   -8.9633868e-06   -7.3468750e-06    8.2985971e-06    1.2069260e-16    7.8411167e-06    7.9801614e-17    4.5964375e-17   -1.8010616e-05   -2.5103493e-05    2.0783287e-05    2.2158210e-05    7.8411167e-06    1.6757352e-16    4.4545129e-17   -8.2985971e-06   -6.8579261e-06    7.3468750e-06    1.2018889e-16    7.8873121e-17    2.0783287e-05    1.9395762e-05   -1.6625148e-05   -2.3557091e-05    6.8579261e-06   -7.8411167e-06    7.3468750e-06    7.7300928e-17    2.1987575e-16   -6.3678781e-06    1.1905841e-16    1.6681737e-16    1.9395762e-05    1.8010616e-05   -1.5239725e-05   -2.2158210e-05   -5.8780779e-06    2.7641573e-16    6.8579261e-06    1.1731106e-16   -7.3468750e-06    6.3678781e-06    1.6548459e-16    2.1877196e-16    1.8010616e-05   -1.3854295e-05   -2.0783287e-05    1.6625148e-05   -6.8579261e-06    5.8780779e-06    3.3698369e-16   -5.3882327e-06    1.6366683e-16    6.3678781e-06    2.1739168e-16    2.7517837e-16    1.5239725e-05   -1.2468865e-05    1.6625148e-05   -1.9395762e-05   -6.3678781e-06    5.8780779e-06    4.0043199e-16    5.3882327e-06   -4.8983939e-06    2.1543890e-16    3.3520426e-16    2.7360874e-16    1.5239725e-05    1.3854295e-05   -1.8010616e-05   -1.1083436e-05   -5.8780779e-06   -4.4085546e-06    4.8983939e-06    2.7204340e-16    5.3882327e-06    4.6573122e-16    3.9856987e-16    3.3360845e-16    1.3854295e-05   -9.6980066e-06    1.2468865e-05   -1.6625148e-05    3.3200370e-16   -5.3882327e-06    4.4085546e-06   -3.9187153e-06    5.3281851e-16    4.8983939e-06    4.6379395e-16    3.9654957e-16    1.1083436e-05    1.2468865e-05   -1.5239725e-05   -8.3125788e-06    6.0116353e-16   -4.8983939e-06    3.9458244e-16    4.4085546e-06   -3.4288757e-06    3.9187153e-06    4.6199115e-16    5.3104402e-16    9.6980066e-06   -6.9271264e-06   -1.3854295e-05    1.1083436e-05   -2.9390367e-06   -4.4085546e-06    6.7038036e-16    3.9187153e-06    4.6002984e-16    3.4288757e-06    5.2914127e-16    5.9973660e-16   -5.5417618e-06    9.6980066e-06    8.3125788e-06   -1.2468865e-05   -2.4491953e-06    5.2717462e-16    2.9390367e-06    7.3975543e-16    3.4288757e-06   -3.9187153e-06    6.6877333e-16    5.9769271e-16    6.9271264e-06    8.3125788e-06   -4.1568937e-06   -1.1083436e-05    5.9508056e-16   -3.4288757e-06   -1.9593149e-06    8.1036690e-16    2.9390367e-06    2.4491953e-06    6.6693447e-16    7.3825989e-16   -2.7679835e-06    5.5417618e-06   -9.6980066e-06    6.9271264e-06   -1.4701387e-06    2.4491953e-06    8.8035141e-16    6.6447697e-16    1.9593149e-06   -2.9390367e-06    7.3646333e-16    8.0853535e-16   -1.3432212e-06    4.1568937e-06    5.5417618e-06   -8.3125788e-06    1.9593149e-06   -2.4491953e-06   -9.7729958e-07    9.4972532e-16    1.4701387e-06    7.3535308e-16    8.0748376e-16    8.7883766e-16   -4.8947129e-07    2.7679835e-06   -6.9271264e-06    4.1568937e-06    1.4701387e-06   -4.7212970e-07    1.0197555e-15    9.7729958e-07    8.0588313e-16   -1.9593149e-06    9.4853142e-16    8.7722342e-16   -2.0127872e-07    2.7679835e-06    1.3432212e-06    1.0909644e-15   -5.5417618e-06    4.7212970e-07   -1.4701387e-06    8.7763657e-16    9.7729958e-07    9.4810187e-16    1.0193081e-15    4.8947129e-07    1.3432212e-06    2.0127874e-07   -4.1568937e-06    1.0906876e-15    9.4950699e-16    4.7212970e-07   -9.7729958e-07    1.0196599e-15    4.8947129e-07    2.0127874e-07   -2.7679835e-06   -4.7212970e-07    1.0207645e-15    1.0907295e-15    1.0916169e-15   -2.0127872e-07   -1.3432212e-06   -4.8947129e-07
            </DataArray>
            <DataArray type="Float64" Name="fy" NumberOfComponents="1" format="ascii">
               4.0954105e+01    2.1386226e-12    3.4599888e+01    4.0661918e-15   -4.0954105e+01   -3.4599888e+01    1.9350840e-14    5.7870375e-15    3.0328101e-12   -1.8839097e-15   -4.0954105e+01    4.7023149e-14   -6.7168493e-15   -3.4599888e+01   -1.2986140e-14   -3.3167913e-14   -1.4779844e-15    3.6507464e-12    4.3784421e-15    1.5525775e-14    3.4599888e+01   -1.4170956e-14   -7.5078832e-15    2.9367619e-12   -5.3429483e-14    1.8086227e-14   -1.1102230e-16    1.6583956e-15   -1.3530843e-15    7.3760442e-15    4.0954105e+01   -3.6321640e-14   -1.5815474e-14   -3.5145498e-15    4.6601611e-14    3.2224223e-14    1.8790525e-14   -6.3039851e-15    6.4392935e-15   -1.3052059e-14   -7.3552275e-15    5.1347815e-16   -2.0039526e-14   -4.3021142e-16    1.2203086e-13   -3.6469092e-14   -1.5796392e-14    4.5519144e-15    1.0755286e-14    1.0283441e-14    6.4184769e-15    1.2294332e-13    7.3392681e-14   -6.8556272e-15    1.7556616e-13    5.8460181e-15   -2.0664026e-14   -4.9821258e-15    8.6042284e-15    4.1952553e-14   -1.6407015e-14   -4.0592529e-15    3.0260516e-14   -7.7847451e-14    2.9039271e-14    2.6117997e-14    5.6107896e-14   -1.1862039e-14    3.6222414e-13   -1.5033114e-14   -6.6065209e-14    7.4253104e-14    7.4260043e-14   -9.7213904e-15    2.2793573e-13   -3.8753722e-14    1.1325663e-13    7.3711870e-14   -1.0626743e-13   -1.6653345e-16   -2.2253033e-13    2.1769045e-14    2.7824965e-13    2.8686775e-13    1.2004980e-13    9.4615288e-14    8.6111673e-15    5.9049987e-15    2.3560320e-13   -1.4145629e-13    1.4506799e-13   -1.1464787e-14    2.4417968e-14    4.8636442e-14    8.9053764e-14    2.0840274e-13    1.8074778e-13    3.9512837e-13    1.6127724e-13    1.5107360e-13    1.3523904e-14   -4.7004067e-14    2.7078166e-13   -1.6694458e-13   -2.1218964e-13   -8.2812229e-14    7.6133544e-14   -1.1657342e-15    8.6864543e-14    2.9535402e-13    4.7665344e-13    4.2396642e-14    8.9349708e-13    1.0048212e-13    1.2478039e-13    3.0948161e-13   -8.8533347e-14   -4.6117624e-14    1.3396922e-13    1.2617685e-13    1.9810542e-14   -5.1247201e-14   -1.7499890e-14   -5.2661001e-14    4.5033421e-13    2.1722901e-13    1.3287635e-13    7.7644835e-13    2.3670302e-14   -9.2793828e-14   -1.7933224e-13    2.3225172e-13    4.7362114e-13    2.1280894e-13    8.5159484e-13   -1.3456597e-13    1.7926979e-13   -6.0507155e-14   -7.1736020e-14    5.5748808e-13   -8.9017335e-14    3.2134018e-14    1.5725268e-13    1.2290863e-13   -3.0116187e-13    4.8835935e-14    5.4823854e-13    2.1146973e-13    4.0652204e-13    8.1708251e-13   -1.0794317e-13    8.9190808e-13    1.4577228e-13    2.9684935e-13    1.0224460e-13    5.6933624e-14   -6.8975381e-13    3.6174536e-13   -6.7193126e-13    4.1097681e-13    5.0395799e-13    7.0256995e-13    1.3550099e-13    1.3401953e-13   -5.2099124e-13    4.8235721e-14    4.9371271e-13   -3.2651486e-13    7.7892554e-14    5.5123267e-13   -3.8311715e-13   -3.0179331e-13   -6.2657518e-13   -2.6945807e-13   -7.6934639e-13    4.1402645e-14    3.1644826e-14   -3.1753072e-13    1.0035028e-13   -4.0345158e-13    2.4225760e-13    1.2331126e-12   -2.9299826e-13   -2.7731289e-13    6.1086552e-14   -3.4848166e-13   -2.9611556e-13    1.5628991e-13    4.9370404e-13   -7.6745554e-13   -3.8901347e-13   -5.8330771e-13    1.3535770e-12   -5.6809939e-13   -2.7661901e-13   -2.1054339e-14    1.2292632e-12   -2.2546374e-13    3.8053935e-13    1.3889757e-13   -1.3372463e-13    2.0014546e-13    4.7576526e-14    6.8640753e-13    4.0228237e-14    2.3671169e-13    7.3167600e-14   -5.7798558e-13    1.1996532e-12    1.7611537e-12   -3.9040291e-14   -9.0462360e-14   -4.3241452e-14   -1.8386334e-14   -1.1473461e-13    1.9718602e-13   -7.0033042e-13    1.2700405e-12    8.2685941e-13   -1.3190837e-13    5.8273872e-13   -7.4908482e-13    4.4916935e-13    3.2604648e-13   -4.7202173e-13   -4.4565979e-13   -1.7919520e-13    1.3398666e-12   -1.0615597e-13    1.9587283e-13   -7.4829032e-14   -4.5222073e-14   -2.3687458e-12    1.9936038e-13    4.8455337e-13    1.4307305e-13   -7.3835035e-13    3.5053904e-13    7.5508523e-13   -1.3799214e-12   -9.1542616e-13   -1.3873312e-12    5.5538018e-13   -6.8726275e-14    3.3119341e-13    1.2175634e-12   -2.9174753e-13    4.2510327e-14    2.7856949e-13   -1.5318389e-13   -6.5878553e-13   -1.1900203e-15
            </DataArray>
            <DataArray type="Float64" Name="uz" NumberOfComponents="1" format="ascii">