# vtk DataFile Version 3.0
Amaru - Finite Element Structures and Tools
ASCII
DATASET UNSTRUCTURED_GRID

POINTS 12 float64
  0.000000000000000e+00   0.000000000000000e+00   0.000000000000000e+00 
  0.000000000000000e+00   3.000000000000000e-01   0.000000000000000e+00 
  4.000000000000000e-01   0.000000000000000e+00   0.000000000000000e+00 
  4.000000000000000e-01   3.000000000000000e-01   0.000000000000000e+00 
  8.000000000000000e-01   0.000000000000000e+00   0.000000000000000e+00 
  1.200000000000000e+00   0.000000000000000e+00   0.000000000000000e+00 
  8.000000000000000e-01   3.000000000000000e-01   0.000000000000000e+00 
  1.200000000000000e+00   3.000000000000000e-01   0.000000000000000e+00 
  1.600000000000000e+00   0.000000000000000e+00   0.000000000000000e+00 
  2.000000000000000e+00   0.000000000000000e+00   0.000000000000000e+00 
  1.600000000000000e+00   3.000000000000000e-01   0.000000000000000e+00 
  2.000000000000000e+00   3.000000000000000e-01   0.000000000000000e+00 

CELLS 5 25
4 0 2 3 1 
4 2 4 6 3 
4 4 5 7 6 
4 5 8 10 7 
4 8 9 11 10 

CELL_TYPES 5
9
9
9
9
9

POINT_DATA 12
VECTORS U float64
  0.000000000000000e+00   0.000000000000000e+00   0.000000000000000e+00 
  0.000000000000000e+00   0.000000000000000e+00   0.000000000000000e+00 
 -1.999999999999365e-03  -2.666666666665758e-03   0.000000000000000e+00 
  1.999999999999354e-03  -2.666666666665759e-03   0.000000000000000e+00 
 -3.999999999998950e-03  -1.066666666666343e-02   0.000000000000000e+00 
 -5.999999999998743e-03  -2.399999999999360e-02   0.000000000000000e+00 
  3.999999999998926e-03  -1.066666666666343e-02   0.000000000000000e+00 
  5.999999999998709e-03  -2.399999999999360e-02   0.000000000000000e+00 
 -7.999999999998670e-03  -4.266666666665676e-02   0.000000000000000e+00 
 -9.999999999998637e-03  -6.666666666665308e-02   0.000000000000000e+00 
  7.999999999998618e-03  -4.266666666665675e-02   0.000000000000000e+00 
  9.999999999998579e-03  -6.666666666665309e-02   0.000000000000000e+00 
SCALARS syy float64 1
LOOKUP_TABLE default
      -2.0755134279e-15      -9.1241215155e-16       1.6997062841e-15      -4.3227120937e-15       1.2402090804e-14      -3.3226527724e-14       1.5370465614e-14      -5.1364409232e-14       9.5687517254e-14      -1.6781547853e-13       5.7002912521e-14      -1.6865798102e-13
SCALARS szz float64 1
LOOKUP_TABLE default
       0.0000000000e+00       0.0000000000e+00       0.0000000000e+00       0.0000000000e+00       0.0000000000e+00       0.0000000000e+00       0.0000000000e+00       0.0000000000e+00       0.0000000000e+00       0.0000000000e+00       0.0000000000e+00       0.0000000000e+00
SCALARS s_m float64 1
LOOKUP_TABLE default
      -3.2409212166e+00       3.4257454501e+00      -3.2409212166e+00       3.4257454501e+00      -3.2409212166e+00      -3.2409212166e+00       3.4257454501e+00       3.4257454501e+00      -3.2409212166e+00      -3.2409212166e+00       3.4257454501e+00       3.4257454501e+00
SCALARS fx float64 1
LOOKUP_TABLE default
       1.0000000000e+01      -1.0000000000e+01      -3.5527136788e-15       2.4868995752e-14       7.1054273576e-15       9.9475983006e-14      -4.6185277824e-14       1.0658141036e-14      -7.6383344094e-14      -1.0000000000e+01      -8.5265128291e-14       1.0000000000e+01
SCALARS sxx float64 1
LOOKUP_TABLE default
      -9.7227636497e+00       1.0277236350e+01      -9.7227636497e+00       1.0277236350e+01      -9.7227636497e+00      -9.7227636497e+00       1.0277236350e+01       1.0277236350e+01      -9.7227636497e+00      -9.7227636497e+00       1.0277236350e+01       1.0277236350e+01
SCALARS eyy float64 1
LOOKUP_TABLE default
      -1.0377567140e-18      -4.5620607578e-19       8.4985314206e-19      -2.1613560469e-18       6.2010454021e-18      -1.6613263862e-17       7.6852328068e-18      -2.5682204616e-17       4.7843758627e-17      -8.3907739267e-17       2.8501456260e-17      -8.4328990508e-17
SCALARS node-id int 1
LOOKUP_TABLE default
         1         2         3         4         5         6         7         8         9        10        11        12
SCALARS ux float64 1
LOOKUP_TABLE default
       0.0000000000e+00       0.0000000000e+00      -2.0000000000e-03       2.0000000000e-03      -4.0000000000e-03      -6.0000000000e-03       4.0000000000e-03       6.0000000000e-03      -8.0000000000e-03      -1.0000000000e-02       8.0000000000e-03       1.0000000000e-02
SCALARS sxy float64 1
LOOKUP_TABLE default
       1.3284270949e-13       1.3341897179e-13       1.4567326207e-13       1.4081827632e-13       1.3598709875e-13       6.9340820344e-14       1.3589857401e-13       7.0764195273e-14       2.6809951396e-14      -1.8665280484e-14       2.9443136555e-14       2.7090188273e-15
SCALARS exy float64 1
LOOKUP_TABLE default
       6.6421354746e-17       6.6709485897e-17       7.2836631034e-17       7.0409138160e-17       6.7993549375e-17       3.4670410172e-17       6.7949287007e-17       3.5382097636e-17       1.3404975698e-17      -9.3326402419e-18       1.4721568277e-17       1.3545094137e-18
SCALARS exx float64 1
LOOKUP_TABLE default
      -4.8613818249e-03       5.1386181751e-03      -4.8613818249e-03       5.1386181751e-03      -4.8613818249e-03      -4.8613818249e-03       5.1386181751e-03       5.1386181751e-03      -4.8613818249e-03      -4.8613818249e-03       5.1386181751e-03       5.1386181751e-03
SCALARS ezz float64 1
LOOKUP_TABLE default
       0.0000000000e+00       0.0000000000e+00       0.0000000000e+00       0.0000000000e+00       0.0000000000e+00       0.0000000000e+00       0.0000000000e+00       0.0000000000e+00       0.0000000000e+00       0.0000000000e+00       0.0000000000e+00       0.0000000000e+00
SCALARS fy float64 1
LOOKUP_TABLE default
      -3.9556041750e-13      -4.1309853046e-13      -1.1862340009e-15      -3.8372736149e-14       5.8018538731e-14       2.7334496546e-13       1.0113731792e-13       1.9676279610e-13      -2.3753896938e-13       2.2399219854e-13       3.7185547269e-13      -1.3935440194e-13
SCALARS uy float64 1
LOOKUP_TABLE default
       0.0000000000e+00       0.0000000000e+00      -2.6666666667e-03      -2.6666666667e-03      -1.0666666667e-02      -2.4000000000e-02      -1.0666666667e-02      -2.4000000000e-02      -4.2666666667e-02      -6.6666666667e-02      -4.2666666667e-02      -6.6666666667e-02
CELL_DATA 5
SCALARS elem-id int 1
LOOKUP_TABLE default
         1         2         3         4         5
SCALARS cell-type int 1
LOOKUP_TABLE default
         9         9         9         9         9
