<?xml version="1.0"?>
<VTKFile type="UnstructuredGrid" version="0.1" byte_order="LittleEndian">
   <UnstructuredGrid>
      <Piece NumberOfPoints="9" NumberOfCells="4">
         <Points>
            <DataArray type="Float64" NumberOfComponents="3" format="ascii">
               1.0000000e+02     1.0000000e+02     1.0000000e+01
               1.0000000e+02     5.0000000e+01     0.0000000e+00
               5.0000000e+01     1.0000000e+02     0.0000000e+00
               1.0000000e+02     0.0000000e+00    -1.0000000e+01
               0.0000000e+00     1.0000000e+02    -1.0000000e+01
               5.0000000e+01     5.0000000e+01     0.0000000e+00
               5.0000000e+01     0.0000000e+00     0.0000000e+00
               0.0000000e+00     5.0000000e+01     0.0000000e+00
               0.0000000e+00     0.0000000e+00     1.0000000e+01
            </DataArray>
         </Points>
         <Cells>
            <DataArray type="Int32" Name="connectivity" format="ascii">
               2  0  1  5  7  4  2  5  6  8  7  5  1  3  6  5  
            </DataArray>
            <DataArray type="Int32" Name="offsets" format="ascii">
               4  8  12  16  
            </DataArray>
            <DataArray type="Int32" Name="types" format="ascii">
               9  9  9  9  
            </DataArray>
         </Cells>
         <PointData>
            <DataArray type="Int32" Name="node-id" NumberOfComponents="1" format="ascii">
               1  2  3  4  5  6  7  8  9  
            </DataArray>
            <DataArray type="Float64" Name="ux" NumberOfComponents="1" format="ascii">
               0.0000000e+00    0.0000000e+00    0.0000000e+00    0.0000000e+00    0.0000000e+00   -5.1133838e-03    0.0000000e+00    0.0000000e+00    0.0000000e+00
            </DataArray>
            <DataArray type="Float64" Name="fx" NumberOfComponents="1" format="ascii">
               2.0095919e+01    5.9974686e+01   -1.0216732e+00   -7.7793716e+01   -8.1382469e+01   -5.6843419e-14   -1.1183382e+00    6.2252106e+01    1.8993486e+01
            </DataArray>
            <DataArray type="Float64" Name="uy" NumberOfComponents="1" format="ascii">
               0.0000000e+00    0.0000000e+00    0.0000000e+00    0.0000000e+00    0.0000000e+00    5.1637031e-03    0.0000000e+00    0.0000000e+00    0.0000000e+00
            </DataArray>
            <DataArray type="Float64" Name="fy" NumberOfComponents="1" format="ascii">
               -1.8187929e+01    1.0626855e+00   -6.2841686e+01    7.7609444e+01    8.1163414e+01    1.4210855e-14   -6.0564064e+01    1.0827287e+00   -1.9324593e+01
            </DataArray>
            <DataArray type="Float64" Name="uz" NumberOfComponents="1" format="ascii">
               0.0000000e+00    0.0000000e+00    0.0000000e+00    0.0000000e+00    0.0000000e+00   -1.2713803e-01    0.0000000e+00    0.0000000e+00    0.0000000e+00
            </DataArray>
            <DataArray type="Float64" Name="fz" NumberOfComponents="1" format="ascii">
               3.0671188e-01    1.5245383e+01    1.4568158e+01    1.9401251e+01    2.0352327e+01   -1.0000000e+02    1.4713761e+01    1.5103580e+01    3.0882716e-01
            </DataArray>
            <DataArray type="Float64" Name="rx" NumberOfComponents="1" format="ascii">
               0.0000000e+00    0.0000000e+00    0.0000000e+00    0.0000000e+00    0.0000000e+00   -5.0823051e-03    0.0000000e+00    0.0000000e+00    0.0000000e+00
            </DataArray>
            <DataArray type="Float64" Name="mx" NumberOfComponents="1" format="ascii">
               -4.2081390e+01   -3.7248489e+01    5.3532684e+01    5.2118382e+01    5.1269890e+01   -4.5332627e-12    5.5288330e+01   -3.7012962e+01   -3.9501312e+01
            </DataArray>
            <DataArray type="Float64" Name="ry" NumberOfComponents="1" format="ascii">
               0.0000000e+00    0.0000000e+00    0.0000000e+00    0.0000000e+00    0.0000000e+00    5.0322372e-03    0.0000000e+00    0.0000000e+00    0.0000000e+00
            </DataArray>
            <DataArray type="Float64" Name="my" NumberOfComponents="1" format="ascii">
               3.9450390e+01   -5.6005135e+01    3.7941509e+01   -5.1972195e+01   -5.1082672e+01    3.4390268e-12    3.8106285e+01   -5.4250111e+01    4.2025379e+01
            </DataArray>
            <DataArray type="Float64" Name="U" NumberOfComponents="3" format="ascii">
               0.0000000e+00    0.0000000e+00    0.0000000e+00    0.0000000e+00    0.0000000e+00    0.0000000e+00    0.0000000e+00    0.0000000e+00    0.0000000e+00    0.0000000e+00    0.0000000e+00    0.0000000e+00    0.0000000e+00    0.0000000e+00    0.0000000e+00   -5.1133838e-03    5.1637031e-03   -1.2713803e-01    0.0000000e+00    0.0000000e+00    0.0000000e+00    0.0000000e+00    0.0000000e+00    0.0000000e+00    0.0000000e+00    0.0000000e+00    0.0000000e+00
            </DataArray>
         </PointData>
         <CellData>
            <DataArray type="Int32" Name="elem-id" NumberOfComponents="1" format="ascii">
               1  2  3  4  
            </DataArray>
            <DataArray type="Int32" Name="cell-type" NumberOfComponents="1" format="ascii">
               9  9  9  9  
            </DataArray>
         </CellData>
      </Piece>
   </UnstructuredGrid>
</VTKFile>
