<?xml version="1.0"?>
<VTKFile type="UnstructuredGrid" version="0.1" byte_order="LittleEndian">
   <UnstructuredGrid>
      <Piece NumberOfPoints="451" NumberOfCells="400">
         <Points>
            <DataArray type="Float64" NumberOfComponents="3" format="ascii">
               -3.0000000e+02     0.0000000e+00     0.0000000e+00
               -3.0000000e+02     6.0000000e+01     0.0000000e+00
               -2.9907520e+02     0.0000000e+00     2.3537729e+01
               -3.0000000e+02     1.2000000e+02     0.0000000e+00
               -2.9630650e+02     0.0000000e+00     4.6930340e+01
               -2.9907520e+02     6.0000000e+01     2.3537729e+01
               -2.9171098e+02     0.0000000e+00     7.0033609e+01
               -3.0000000e+02     1.8000000e+02     0.0000000e+00
               -2.9907520e+02     1.2000000e+02     2.3537729e+01
               -2.9630650e+02     6.0000000e+01     4.6930340e+01
               -3.0000000e+02     2.4000000e+02     0.0000000e+00
               -2.8531695e+02     0.0000000e+00     9.2705098e+01
               -2.9907520e+02     1.8000000e+02     2.3537729e+01
               -2.9171098e+02     6.0000000e+01     7.0033609e+01
               -2.9630650e+02     1.2000000e+02     4.6930340e+01
               -2.7716386e+02     0.0000000e+00     1.1480503e+02
               -3.0000000e+02     3.0000000e+02     0.0000000e+00
               -2.9907520e+02     2.4000000e+02     2.3537729e+01
               -2.9630650e+02     1.8000000e+02     4.6930340e+01
               -2.9171098e+02     1.2000000e+02     7.0033609e+01
               -2.8531695e+02     6.0000000e+01     9.2705098e+01
               -2.6730196e+02     0.0000000e+00     1.3619715e+02
               -3.0000000e+02     3.6000000e+02     0.0000000e+00
               -2.8531695e+02     1.2000000e+02     9.2705098e+01
               -2.9907520e+02     3.0000000e+02     2.3537729e+01
               -2.9171098e+02     1.8000000e+02     7.0033609e+01
               -2.7716386e+02     6.0000000e+01     1.1480503e+02
               -2.9630650e+02     2.4000000e+02     4.6930340e+01
               -2.5579205e+02     0.0000000e+00     1.5674957e+02
               -3.0000000e+02     4.2000000e+02     0.0000000e+00
               -2.9171098e+02     2.4000000e+02     7.0033609e+01
               -2.9630650e+02     3.0000000e+02     4.6930340e+01
               -2.6730196e+02     6.0000000e+01     1.3619715e+02
               -2.7716386e+02     1.2000000e+02     1.1480503e+02
               -2.9907520e+02     3.6000000e+02     2.3537729e+01
               -2.8531695e+02     1.8000000e+02     9.2705098e+01
               -3.0000000e+02     4.8000000e+02     0.0000000e+00
               -2.4270510e+02     0.0000000e+00     1.7633558e+02
               -2.9171098e+02     3.0000000e+02     7.0033609e+01
               -2.9630650e+02     3.6000000e+02     4.6930340e+01
               -2.9907520e+02     4.2000000e+02     2.3537729e+01
               -2.8531695e+02     2.4000000e+02     9.2705098e+01
               -2.5579205e+02     6.0000000e+01     1.5674957e+02
               -2.6730196e+02     1.2000000e+02     1.3619715e+02
               -2.7716386e+02     1.8000000e+02     1.1480503e+02
               -3.0000000e+02     5.4000000e+02     0.0000000e+00
               -2.2812179e+02     0.0000000e+00     1.9483441e+02
               -2.8531695e+02     3.0000000e+02     9.2705098e+01
               -2.7716386e+02     2.4000000e+02     1.1480503e+02
               -2.4270510e+02     6.0000000e+01     1.7633558e+02
               -2.6730196e+02     1.8000000e+02     1.3619715e+02
               -2.5579205e+02     1.2000000e+02     1.5674957e+02
               -2.9171098e+02     3.6000000e+02     7.0033609e+01
               -2.9907520e+02     4.8000000e+02     2.3537729e+01
               -2.9630650e+02     4.2000000e+02     4.6930340e+01
               -3.0000000e+02     6.0000000e+02     0.0000000e+00
               -2.1213203e+02     0.0000000e+00     2.1213203e+02
               -2.4270510e+02     1.2000000e+02     1.7633558e+02
               -2.9907520e+02     5.4000000e+02     2.3537729e+01
               -2.7716386e+02     3.0000000e+02     1.1480503e+02
               -2.9630650e+02     4.8000000e+02     4.6930340e+01
               -2.9171098e+02     4.2000000e+02     7.0033609e+01
               -2.6730196e+02     2.4000000e+02     1.3619715e+02
               -2.2812179e+02     6.0000000e+01     1.9483441e+02
               -2.8531695e+02     3.6000000e+02     9.2705098e+01
               -2.5579205e+02     1.8000000e+02     1.5674957e+02
               -2.9907520e+02     6.0000000e+02     2.3537729e+01
               -1.9483441e+02     0.0000000e+00     2.2812179e+02
               -2.8531695e+02     4.2000000e+02     9.2705098e+01
               -2.4270510e+02     1.8000000e+02     1.7633558e+02
               -2.9630650e+02     5.4000000e+02     4.6930340e+01
               -2.1213203e+02     6.0000000e+01     2.1213203e+02
               -2.7716386e+02     3.6000000e+02     1.1480503e+02
               -2.6730196e+02     3.0000000e+02     1.3619715e+02
               -2.2812179e+02     1.2000000e+02     1.9483441e+02
               -2.9171098e+02     4.8000000e+02     7.0033609e+01
               -2.5579205e+02     2.4000000e+02     1.5674957e+02
               -1.7633558e+02     0.0000000e+00     2.4270510e+02
               -2.9630650e+02     6.0000000e+02     4.6930340e+01
               -2.5579205e+02     3.0000000e+02     1.5674957e+02
               -2.4270510e+02     2.4000000e+02     1.7633558e+02
               -2.2812179e+02     1.8000000e+02     1.9483441e+02
               -2.8531695e+02     4.8000000e+02     9.2705098e+01
               -2.6730196e+02     3.6000000e+02     1.3619715e+02
               -2.7716386e+02     4.2000000e+02     1.1480503e+02
               -2.1213203e+02     1.2000000e+02     2.1213203e+02
               -2.9171098e+02     5.4000000e+02     7.0033609e+01
               -1.9483441e+02     6.0000000e+01     2.2812179e+02
               -2.9171098e+02     6.0000000e+02     7.0033609e+01
               -1.5674957e+02     0.0000000e+00     2.5579205e+02
               -2.4270510e+02     3.0000000e+02     1.7633558e+02
               -1.9483441e+02     1.2000000e+02     2.2812179e+02
               -2.1213203e+02     1.8000000e+02     2.1213203e+02
               -1.7633558e+02     6.0000000e+01     2.4270510e+02
               -2.5579205e+02     3.6000000e+02     1.5674957e+02
               -2.6730196e+02     4.2000000e+02     1.3619715e+02
               -2.2812179e+02     2.4000000e+02     1.9483441e+02
               -2.7716386e+02     4.8000000e+02     1.1480503e+02
               -2.8531695e+02     5.4000000e+02     9.2705098e+01
               -1.3619715e+02     0.0000000e+00     2.6730196e+02
               -2.8531695e+02     6.0000000e+02     9.2705098e+01
               -1.7633558e+02     1.2000000e+02     2.4270510e+02
               -1.9483441e+02     1.8000000e+02     2.2812179e+02
               -2.4270510e+02     3.6000000e+02     1.7633558e+02
               -1.5674957e+02     6.0000000e+01     2.5579205e+02
               -2.1213203e+02     2.4000000e+02     2.1213203e+02
               -2.5579205e+02     4.2000000e+02     1.5674957e+02
               -2.7716386e+02     5.4000000e+02     1.1480503e+02
               -2.6730196e+02     4.8000000e+02     1.3619715e+02
               -2.2812179e+02     3.0000000e+02     1.9483441e+02
               -1.1480503e+02     0.0000000e+00     2.7716386e+02
               -2.7716386e+02     6.0000000e+02     1.1480503e+02
               -1.9483441e+02     2.4000000e+02     2.2812179e+02
               -1.3619715e+02     6.0000000e+01     2.6730196e+02
               -2.6730196e+02     5.4000000e+02     1.3619715e+02
               -2.5579205e+02     4.8000000e+02     1.5674957e+02
               -2.1213203e+02     3.0000000e+02     2.1213203e+02
               -2.2812179e+02     3.6000000e+02     1.9483441e+02
               -1.7633558e+02     1.8000000e+02     2.4270510e+02
               -1.5674957e+02     1.2000000e+02     2.5579205e+02
               -2.4270510e+02     4.2000000e+02     1.7633558e+02
               -9.2705098e+01     0.0000000e+00     2.8531695e+02
               -2.6730196e+02     6.0000000e+02     1.3619715e+02
               -1.7633558e+02     2.4000000e+02     2.4270510e+02
               -2.4270510e+02     4.8000000e+02     1.7633558e+02
               -2.1213203e+02     3.6000000e+02     2.1213203e+02
               -2.5579205e+02     5.4000000e+02     1.5674957e+02
               -1.5674957e+02     1.8000000e+02     2.5579205e+02
               -2.2812179e+02     4.2000000e+02     1.9483441e+02
               -1.1480503e+02     6.0000000e+01     2.7716386e+02
               -1.9483441e+02     3.0000000e+02     2.2812179e+02
               -1.3619715e+02     1.2000000e+02     2.6730196e+02
               -7.0033609e+01     0.0000000e+00     2.9171098e+02
               -2.5579205e+02     6.0000000e+02     1.5674957e+02
               -2.1213203e+02     4.2000000e+02     2.1213203e+02
               -1.1480503e+02     1.2000000e+02     2.7716386e+02
               -1.7633558e+02     3.0000000e+02     2.4270510e+02
               -1.9483441e+02     3.6000000e+02     2.2812179e+02
               -1.5674957e+02     2.4000000e+02     2.5579205e+02
               -2.4270510e+02     5.4000000e+02     1.7633558e+02
               -1.3619715e+02     1.8000000e+02     2.6730196e+02
               -2.2812179e+02     4.8000000e+02     1.9483441e+02
               -9.2705098e+01     6.0000000e+01     2.8531695e+02
               -4.6930340e+01     0.0000000e+00     2.9630650e+02
               -2.4270510e+02     6.0000000e+02     1.7633558e+02
               -2.2812179e+02     5.4000000e+02     1.9483441e+02
               -1.5674957e+02     3.0000000e+02     2.5579205e+02
[...]
         <PointData>
            <DataArray type="Int32" Name="node-id" NumberOfComponents="1" format="ascii">
               1  2  3  4  5  6  7  8  9  10  11  12  13  14  15  16  17  18  19  20  21  22  23  24  25  26  27  28  29  30  31  32  33  34  35  36  37  38  39  40  41  42  43  44  45  46  47  48  49  50  51  52  53  54  55  56  57  58  59  60  61  62  63  64  65  66  67  68  69  70  71  72  73  74  75  76  77  78  79  80  81  82  83  84  85  86  87  88  89  90  91  92  93  94  95  96  97  98  99  100  101  102  103  104  105  106  107  108  109  110  111  112  113  114  115  116  117  118  119  120  121  122  123  124  125  126  127  128  129  130  131  132  133  134  135  136  137  138  139  140  141  142  143  144  145  146  147  148  149  150  151  152  153  154  155  156  157  158  159  160  161  162  163  164  165  166  167  168  169  170  171  172  173  174  175  176  177  178  179  180  181  182  183  184  185  186  187  188  189  190  191  192  193  194  195  196  197  198  199  200  201  202  203  204  205  206  207  208  209  210  211  212  213  214  215  216  217  218  219  220  221  222  223  224  225  226  227  228  229  230  231  232  233  234  235  236  237  238  239  240  241  242  243  244  245  246  247  248  249  250  251  252  253  254  255  256  257  258  259  260  261  262  263  264  265  266  267  268  269  270  271  272  273  274  275  276  277  278  279  280  281  282  283  284  285  286  287  288  289  290  291  292  293  294  295  296  297  298  299  300  301  302  303  304  305  306  307  308  309  310  311  312  313  314  315  316  317  318  319  320  321  322  323  324  325  326  327  328  329  330  331  332  333  334  335  336  337  338  339  340  341  342  343  344  345  346  347  348  349  350  351  352  353  354  355  356  357  358  359  360  361  362  363  364  365  366  367  368  369  370  371  372  373  374  375  376  377  378  379  380  381  382  383  384  385  386  387  388  389  390  391  392  393  394  395  396  397  398  399  400  401  402  403  404  405  406  407  408  409  410  411  412  413  414  415  416  417  418  419  420  421  422  423  424  425  426  427  428  429  430  431  432  433  434  435  436  437  438  439  440  441  442  443  444  445  446  447  448  449  450  451  
            </DataArray>
            <DataArray type="Float64" Name="ux" NumberOfComponents="1" format="ascii">
               0.0000000e+00    1.0416169e-02    0.0000000e+00    1.9887527e-02    0.0000000e+00    9.8934826e-03    0.0000000e+00    2.7502291e-02    1.8855164e-02    9.4123455e-03    3.2456100e-02    0.0000000e+00    2.6017467e-02    8.9415144e-03    1.7895315e-02    0.0000000e+00    3.4177173e-02    3.0650781e-02    2.4621833e-02    1.6943900e-02    8.3900588e-03    0.0000000e+00    3.2456100e-02    1.5835768e-02    3.2255173e-02    2.3218138e-02    7.5947810e-03    2.8940666e-02    0.0000000e+00    2.7502291e-02    2.7201727e-02    3.0429510e-02    6.3442527e-03    1.4286057e-02    3.0650781e-02    2.1589303e-02    1.9887527e-02    0.0000000e+00    2.8565612e-02    2.8940666e-02    2.6017467e-02    2.5185591e-02    4.4445749e-03    1.1931612e-02    1.9382752e-02    1.0416169e-02    0.0000000e+00    2.6404332e-02    2.2511516e-02    1.8152372e-03    1.6163733e-02    8.4375832e-03    2.7201727e-02    1.8855164e-02    2.4621833e-02    0.0000000e+00    0.0000000e+00    3.6497789e-03    9.8934826e-03    2.3557927e-02    1.7895315e-02    2.3218138e-02    1.8729048e-02   -1.4158586e-03    2.5185591e-02    1.1536809e-02    0.0000000e+00    0.0000000e+00    2.1589303e-02    5.3100353e-03    9.4123455e-03   -4.8643444e-03    2.2511516e-02    1.9576775e-02   -2.2518802e-03    1.6943900e-02    1.3442868e-02    0.0000000e+00    0.0000000e+00    1.4074964e-02    6.4681298e-03   -2.3433550e-03    1.5835768e-02    1.8729048e-02    1.9382752e-02   -8.6620795e-03    8.9415144e-03   -7.9347743e-03    0.0000000e+00    0.0000000e+00    6.8799420e-03   -1.4587080e-02   -1.0780989e-02   -9.9795368e-03    1.3442868e-02    1.6163733e-02   -2.0287095e-03    1.4286057e-02    8.3900588e-03    0.0000000e+00    0.0000000e+00   -1.8851960e-02   -1.8899472e-02    6.4681298e-03   -1.0535670e-02   -1.1447910e-02    1.1536809e-02    7.5947810e-03    1.1931612e-02   -1.8395125e-03    0.0000000e+00    0.0000000e+00   -2.0766521e-02   -9.5374314e-03    6.3442527e-03    8.4375832e-03   -1.1508032e-02   -2.0287095e-03   -2.5295427e-02   -2.0462638e-02    5.3100353e-03    0.0000000e+00    0.0000000e+00   -2.8657038e-02    3.6497789e-03   -1.1447910e-02    4.4445749e-03   -2.8592022e-02   -2.3433550e-03   -7.3777409e-03   -2.1165112e-02   -1.9024933e-02    0.0000000e+00    0.0000000e+00   -1.0780989e-02   -1.5033214e-02   -2.9575448e-02   -2.0766521e-02   -3.3714678e-02    1.8152372e-03   -2.7892411e-02   -2.2518802e-03   -4.7502513e-03    0.0000000e+00    0.0000000e+00   -1.4158586e-03   -3.5414141e-02   -1.8899472e-02   -2.8657038e-02   -9.8188939e-03   -8.6620795e-03   -2.3254534e-02   -2.3678169e-03   -3.4782972e-02    0.0000000e+00    0.0000000e+00   -5.0238650e-03   -3.1343441e-02   -7.9150544e-04   -1.5968978e-02   -2.5295427e-02   -3.7506863e-02   -1.4587080e-02   -3.3714678e-02   -4.8643444e-03    0.0000000e+00    0.0000000e+00   -1.8851960e-02   -1.7028671e-03   -3.5125062e-02   -3.4782972e-02   -8.3638793e-03   -2.3924515e-02   -2.8592022e-02   -1.4559038e-04   -7.9347743e-03    0.0000000e+00    0.0000000e+00   -2.9801291e-03   -9.9795368e-03   -2.0462638e-02    3.0569840e-16   -1.4380867e-02   -2.8321570e-02   -1.5005236e-04   -2.7892411e-02   -3.1343441e-02    0.0000000e+00    0.0000000e+00   -5.6202593e-03   -1.0535670e-02   -2.3254534e-02   -1.8295420e-02    1.4559038e-04   -2.3924515e-02   -1.9024933e-02   -6.3517987e-04    5.7376260e-16    0.0000000e+00    0.0000000e+00   -1.5968978e-02    1.5005236e-04    7.9150544e-04   -8.3081616e-04   -9.5374314e-03   -1.5033214e-02    8.8252416e-16   -1.4380867e-02   -7.7972617e-03    0.0000000e+00    0.0000000e+00   -5.6202593e-03    1.1043027e-15   -5.6954252e-04    2.3678169e-03   -7.3777409e-03   -8.3638793e-03    6.3517987e-04    1.7028671e-03   -9.8188939e-03    0.0000000e+00    0.0000000e+00    5.0238650e-03    4.7502513e-03    2.9801291e-03   -2.9801291e-03    8.3081616e-04   -5.0238650e-03    1.1012254e-15   -4.7502513e-03   -8.3081616e-04    0.0000000e+00    0.0000000e+00    9.8188939e-03   -6.3517987e-04    5.6954252e-04   -1.7028671e-03    5.6202593e-03    1.1094254e-15    8.3638793e-03   -2.3678169e-03    7.3777409e-03    0.0000000e+00    0.0000000e+00   -1.5005236e-04    1.5968978e-02    9.9457804e-16    7.7972617e-03    8.3081616e-04   -7.9150544e-04    9.5374314e-03    1.4380867e-02    1.5033214e-02    0.0000000e+00    0.0000000e+00   -1.4559038e-04    1.8295420e-02    6.3517987e-04    1.9024933e-02    1.0535670e-02    7.5440381e-16    5.6202593e-03    2.3254534e-02    2.3924515e-02    0.0000000e+00    0.0000000e+00    1.5005236e-04    1.4380867e-02    3.1343441e-02    2.9801291e-03    9.9795368e-03    2.7892411e-02    4.5191521e-16    2.8321570e-02    2.0462638e-02    0.0000000e+00    0.0000000e+00    8.3638793e-03    7.9347743e-03    3.5125062e-02    1.8851960e-02    2.3924515e-02    3.4782972e-02    1.7028671e-03    1.4559038e-04    2.8592022e-02    0.0000000e+00    0.0000000e+00    1.5968978e-02    5.0238650e-03    3.7506863e-02    1.4587080e-02    3.3714678e-02    2.5295427e-02    3.1343441e-02    4.8643444e-03    7.9150544e-04    0.0000000e+00    0.0000000e+00    3.4782972e-02    1.8899472e-02    2.8657038e-02    2.3254534e-02    8.6620795e-03    3.5414141e-02    9.8188939e-03    2.3678169e-03    1.4158586e-03    0.0000000e+00    0.0000000e+00    2.7892411e-02    1.0780989e-02    2.9575448e-02    3.3714678e-02    2.2518802e-03    1.5033214e-02   -1.8152372e-03    4.7502513e-03    2.0766521e-02    0.0000000e+00    0.0000000e+00    2.1165112e-02    1.1447910e-02    1.9024933e-02   -4.4445749e-03    2.3433550e-03    2.8657038e-02    7.3777409e-03   -3.6497789e-03    2.8592022e-02    0.0000000e+00    0.0000000e+00    2.0287095e-03   -5.3100353e-03    2.0766521e-02    2.5295427e-02    1.1508032e-02   -6.3442527e-03   -8.4375832e-03    9.5374314e-03    2.0462638e-02    0.0000000e+00    0.0000000e+00   -1.1931612e-02    1.1447910e-02   -1.1536809e-02    1.8395125e-03   -7.5947810e-03    1.8851960e-02    1.8899472e-02    1.0535670e-02   -6.4681298e-03    0.0000000e+00    0.0000000e+00    1.0780989e-02   -1.3442868e-02   -6.8799420e-03   -1.4286057e-02   -8.3900588e-03   -1.6163733e-02    9.9795368e-03    1.4587080e-02    2.0287095e-03    0.0000000e+00    0.0000000e+00   -6.4681298e-03    8.6620795e-03   -1.5835768e-02   -8.9415144e-03   -1.8729048e-02   -1.4074964e-02   -1.9382752e-02    2.3433550e-03    7.9347743e-03    0.0000000e+00    0.0000000e+00   -2.2511516e-02   -5.3100353e-03   -1.9576775e-02   -1.3442868e-02   -2.1589303e-02    2.2518802e-03   -1.6943900e-02    4.8643444e-03   -9.4123455e-03    0.0000000e+00    0.0000000e+00   -3.6497789e-03   -9.8934826e-03   -2.5185591e-02    1.4158586e-03   -1.7895315e-02   -2.3557927e-02   -2.3218138e-02   -1.1536809e-02   -1.8729048e-02    0.0000000e+00   -1.0416169e-02   -1.6163733e-02   -2.6404332e-02   -2.7201727e-02   -8.4375832e-03   -1.8855164e-02   -2.4621833e-02   -1.8152372e-03   -2.2511516e-02   -1.9887527e-02    0.0000000e+00   -2.8565612e-02   -2.6017467e-02   -1.9382752e-02   -4.4445749e-03   -2.5185591e-02   -2.8940666e-02   -1.1931612e-02    0.0000000e+00   -2.7502291e-02   -3.0650781e-02   -1.4286057e-02   -6.3442527e-03   -2.1589303e-02   -2.7201727e-02   -3.0429510e-02    0.0000000e+00   -3.2456100e-02   -7.5947810e-03   -2.8940666e-02   -3.2255173e-02   -2.3218138e-02   -1.5835768e-02    0.0000000e+00   -3.4177173e-02   -8.3900588e-03   -3.0650781e-02   -2.4621833e-02   -1.6943900e-02   -3.2456100e-02    0.0000000e+00   -8.9415144e-03   -2.6017467e-02   -1.7895315e-02    0.0000000e+00   -2.7502291e-02   -9.4123455e-03   -1.8855164e-02    0.0000000e+00   -1.9887527e-02   -9.8934826e-03    0.0000000e+00   -1.0416169e-02    0.0000000e+00
            </DataArray>
            <DataArray type="Float64" Name="fx" NumberOfComponents="1" format="ascii">
               -9.7758013e-05   -2.0816682e-15    9.7720244e-04   -1.8041124e-15    1.4905477e-03    8.0491169e-16   -1.7347504e-04    1.2212453e-15    3.5665915e-15   -3.0808689e-15    2.4424907e-15   -4.5965174e-03    3.7747583e-15    2.9976022e-15   -1.4710455e-15   -1.1067956e-02   -6.3282712e-15    4.3021142e-15   -1.6653345e-16    7.8825835e-15   -3.1086245e-15   -1.7687997e-02   -2.2204460e-16    3.1918912e-15    2.2204460e-15    5.1070259e-15    2.1233015e-15   -8.3266727e-15   -2.1488460e-02    6.1062266e-16   -1.4210855e-14    1.3877788e-15   -2.3314684e-15    1.3600232e-15   -3.5249581e-15   -3.8302694e-15   -3.4625081e-15   -1.8913129e-02   -1.3766766e-14   -7.5495166e-15   -5.3845817e-15    4.6629367e-15    7.3552275e-16   -1.8873791e-15   -1.6653345e-15    1.6792123e-15   -6.8043624e-03    2.2204460e-15    1.3988810e-14    5.7245875e-17    5.5511151e-16   -2.7755576e-16   -2.8865799e-15    3.0253577e-15    1.3877788e-15   -9.7758013e-05    1.6121138e-02   -1.0824674e-15    2.4980018e-16   -5.9952043e-15   -7.8825835e-15   -2.2204460e-16   -6.6613381e-15    5.6898930e-16    9.9920072e-16   -6.1062266e-15    9.7720244e-04    4.7772381e-02    1.1102230e-15    2.8310687e-15   -3.5249581e-15   -2.4980018e-16   -8.7707619e-15    4.5519144e-15    5.9396932e-15    2.5535130e-15   -3.4416914e-15    8.2111046e-02    1.4905477e-03    1.8873791e-15    2.8865799e-15   -4.9960036e-15    1.1879386e-14   -1.7763568e-15   -4.4408921e-15   -1.1102230e-15   -6.6613381e-16   -9.9920072e-16   -1.7347504e-04    1.1057305e-01   -2.9976022e-15   -5.1070259e-15   -2.1427304e-14   -6.1062266e-16    1.5543122e-15    7.4384943e-15    3.8302694e-15   -5.5511151e-15    2.0539126e-15    1.2560205e-01   -4.5965174e-03   -2.7755576e-15   -1.0658141e-14   -6.1062266e-16   -2.8865799e-15   -8.2156504e-15   -3.1086245e-15   -2.7755576e-16   -1.2212453e-15    1.3322676e-15    1.2448686e-01   -1.1067956e-02   -6.2172489e-15   -1.3877788e-15   -2.3314684e-15    6.6613381e-16   -1.7985613e-14   -5.5511151e-16   -2.3536728e-14   -1.2878587e-14   -8.8817842e-16    1.0937189e-01   -1.7687997e-02    2.3092639e-14    1.0547119e-15    2.0317081e-14   -2.0539126e-15    1.9095836e-14    2.9976022e-15    1.4752088e-14    2.3758773e-14   -6.8833828e-15    8.1511050e-02   -2.1488460e-02   -2.8865799e-15   -6.5503158e-15    1.7319479e-14    6.2172489e-15   -1.1990409e-14   -1.1102230e-15   -6.6613381e-15   -8.3266727e-16   -3.7816972e-15    4.5236461e-02   -1.8913129e-02    1.6653345e-15   -3.6415315e-14    5.7731597e-15    1.9539925e-14    1.9595436e-14   -5.3290705e-15   -7.9936058e-15   -4.1425197e-15    6.2172489e-15    1.4304041e-02   -6.8043624e-03   -1.6299462e-14    1.9984014e-14    1.5959456e-16    1.4155344e-14    8.8817842e-16    4.4408921e-14    1.1768364e-14   -4.7073456e-14   -1.2212453e-15    1.6121138e-02   -1.9276247e-14   -3.1530334e-14    2.2204460e-16   -4.7073456e-14    2.0428104e-14   -8.7152507e-15   -2.1094237e-15   -1.5987212e-14    6.9388939e-16    5.1070259e-15    4.7772381e-02   -1.4304041e-02   -3.1086245e-15    1.3322676e-15    2.8421709e-14   -3.3306691e-16   -8.9928065e-15    7.9936058e-15   -7.2164497e-16    6.1284311e-14    1.3322676e-14   -4.5236461e-02    8.2111046e-02    2.2204460e-15    2.2648550e-14   -1.2878587e-14    1.5543122e-15   -9.7144515e-17    2.3092639e-14   -2.3092639e-14    3.8857806e-15    3.6082248e-16   -8.1511050e-02    1.1057305e-01    6.8833828e-15    1.3322676e-15    4.7184479e-16   -1.5543122e-15   -1.2434498e-14   -5.7731597e-15   -4.4408921e-16    1.3766766e-14   -7.5495166e-15    1.2560205e-01   -1.0937189e-01   -8.1046281e-15    7.4940054e-15    5.5511151e-15    5.2735594e-16    2.8865799e-15   -5.4400928e-15   -2.2204460e-15   -1.1102230e-15   -2.7755576e-16    1.2448686e-01   -1.2448686e-01    7.9936058e-15    2.5604519e-15    1.2878587e-14    5.6621374e-15   -4.2188475e-15   -8.8817842e-15    4.2188475e-15    6.7029715e-15   -1.1102230e-15    1.0937189e-01   -1.2560205e-01   -1.6042723e-14   -2.2204460e-15    8.2156504e-15    9.5479180e-15    7.9936058e-15    1.7763568e-15   -1.1768364e-14   -3.1918912e-15   -2.7755576e-15    8.1511050e-02   -1.1057305e-01   -1.3322676e-15   -8.2156504e-15    2.2204460e-16    1.1102230e-14   -7.7715612e-15   -3.6637360e-15   -1.1657342e-15   -1.2878587e-14    9.7144515e-17    4.5236461e-02   -8.2111046e-02    0.0000000e+00    9.7699626e-15   -4.4408921e-15    1.2989609e-14    7.2164497e-16    1.2212453e-15    8.8817842e-16   -7.2858386e-15   -1.0436096e-14    1.4304041e-02   -4.7772381e-02   -2.2204460e-15   -9.1038288e-15    5.8786309e-14    1.3322676e-15   -4.4408921e-16   -7.7715612e-15   -3.3306691e-16    8.8817842e-15    2.2870594e-14   -3.3417713e-14   -1.6121138e-02    2.8865799e-15    7.3274720e-15   -3.7747583e-14    5.3290705e-15    1.3322676e-14   -3.9968029e-15    3.1086245e-15    2.6645353e-15   -2.1760371e-14   -1.4304041e-02    6.8043624e-03    4.4408921e-16    9.3258734e-15   -7.9936058e-15    8.6597396e-15    3.6415315e-14    3.6859404e-14   -4.9737992e-14    2.5812685e-15    2.2204460e-16    1.8913129e-02   -4.5236461e-02    2.1316282e-14   -2.6645353e-15    1.8651747e-14   -1.5099033e-14   -1.3322676e-15    3.3750780e-14   -2.1704860e-14    2.2204460e-16   -3.7400638e-15   -8.1511050e-02    2.1488460e-02   -1.8651747e-14    7.5495166e-15   -3.9079850e-14    8.8817842e-16    4.4408921e-16    2.9365399e-14   -1.0755286e-16   -2.5535130e-15   -1.5987212e-14    1.7687997e-02   -1.0937189e-01    2.1316282e-14    2.3092639e-14   -7.5495166e-15    2.3592239e-15   -3.3306691e-15    0.0000000e+00    1.9151347e-15    3.3306691e-16    3.3750780e-14    1.1067956e-02   -1.2448686e-01   -6.2172489e-15   -4.4408921e-16    4.4408921e-15    1.8651747e-14   -3.9968029e-15    1.0963452e-15    4.0523140e-15   -8.4376950e-15    7.9936058e-15   -1.2560205e-01    4.5965174e-03    4.3021142e-15   -2.0872193e-14   -4.1078252e-15   -6.2172489e-15   -1.1796120e-15    0.0000000e+00   -7.1054274e-15    9.3258734e-15   -1.7097435e-14   -1.1057305e-01    1.7347504e-04    4.4408921e-16    1.3988810e-14   -5.7731597e-15   -7.5495166e-15    6.4670491e-15    4.1078252e-15   -4.4408921e-15    1.6875390e-14   -5.7731597e-15   -1.4905477e-03   -8.2111046e-02   -3.3306691e-16   -1.7763568e-15   -1.9012569e-15   -2.4008573e-15   -6.9666495e-15    6.7723605e-15    1.4988011e-15   -1.7763568e-15    3.9968029e-15   -9.7720244e-04   -4.7772381e-02   -7.1054274e-15    5.5511151e-15   -6.6613381e-15   -7.1054274e-15    3.2474023e-15   -1.5543122e-15   -1.2490009e-15    2.2204460e-15   -3.5527137e-15    9.7758013e-05   -1.6121138e-02    2.9976022e-15    2.7200464e-15    2.0761171e-14   -2.4424907e-15   -1.7555402e-15   -8.2156504e-15    4.7739590e-15    2.4980018e-15    9.4368957e-15    6.8043624e-03    1.3461454e-15    1.6653345e-16    1.0269563e-14   -8.8817842e-15   -1.9428903e-15    7.8409501e-15   -9.9642516e-15    3.2196468e-15    1.2934098e-14   -6.0784711e-15    1.8913129e-02    5.8841820e-15    8.4654506e-16   -2.9420910e-15    3.3306691e-15   -3.9968029e-15    2.7200464e-15   -1.0463852e-14    2.1488460e-02   -1.3322676e-15   -1.0574874e-14    9.1593400e-15   -6.3560268e-15   -9.3813846e-15    6.7723605e-15   -4.7184479e-15    1.7687997e-02    1.1102230e-15    5.6621374e-15    5.2180482e-15    6.7723605e-15   -4.3298698e-15   -6.3837824e-15    1.1067956e-02   -4.7184479e-15   -2.2204460e-16    5.4956040e-15   -8.3544283e-15    5.0792703e-15   -3.4139358e-15    4.5965174e-03   -2.2898350e-15    1.2545520e-14   -5.3984595e-15    1.7347504e-04   -6.1062266e-16    3.7678194e-15    9.4368957e-16   -1.4905477e-03    1.9428903e-16    5.8356098e-15   -9.7720244e-04   -2.5396352e-15    9.7758013e-05
            </DataArray>
            <DataArray type="Float64" Name="uy" NumberOfComponents="1" format="ascii">