<?xml version="1.0"?>
<VTKFile type="UnstructuredGrid" version="0.1" byte_order="LittleEndian">
   <UnstructuredGrid>
      <Piece NumberOfPoints="9" NumberOfCells="4">
         <Points>
            <DataArray type="Float64" NumberOfComponents="3" format="ascii">
               1.0000000e+02     1.0000000e+02     1.0000000e+01
               1.0000000e+02     5.0000000e+01     0.0000000e+00
               5.0000000e+01     1.0000000e+02     0.0000000e+00
               1.0000000e+02     0.0000000e+00    -1.0000000e+01
               0.0000000e+00     1.0000000e+02    -1.0000000e+01
               5.0000000e+01     5.0000000e+01     0.0000000e+00
               5.0000000e+01     0.0000000e+00     0.0000000e+00
               0.0000000e+00     5.0000000e+01     0.0000000e+00
               0.0000000e+00     0.0000000e+00     1.0000000e+01
            </DataArray>
         </Points>
         <Cells>
            <DataArray type="Int32" Name="connectivity" format="ascii">
               2  0  1  5  7  4  2  5  6  8  7  5  1  3  6  5  
            </DataArray>
            <DataArray type="Int32" Name="offsets" format="ascii">
               4  8  12  16  
            </DataArray>
            <DataArray type="Int32" Name="types" format="ascii">
               9  9  9  9  
            </DataArray>
         </Cells>
         <PointData>
            <DataArray type="Int32" Name="node-id" NumberOfComponents="1" format="ascii">
               1  2  3  4  5  6  7  8  9  
            </DataArray>
            <DataArray type="Float64" Name="ux" NumberOfComponents="1" format="ascii">
               0.0000000e+00    0.0000000e+00    0.0000000e+00    0.0000000e+00    0.0000000e+00    0.0000000e+00    0.0000000e+00    0.0000000e+00    0.0000000e+00
            </DataArray>
            <DataArray type="Float64" Name="fx" NumberOfComponents="1" format="ascii">
               0.0000000e+00    0.0000000e+00    0.0000000e+00    0.0000000e+00    0.0000000e+00    0.0000000e+00    0.0000000e+00    0.0000000e+00    0.0000000e+00
            </DataArray>
            <DataArray type="Float64" Name="uy" NumberOfComponents="1" format="ascii">
               0.0000000e+00    0.0000000e+00    0.0000000e+00    0.0000000e+00    0.0000000e+00    0.0000000e+00    0.0000000e+00    0.0000000e+00    0.0000000e+00
            </DataArray>
            <DataArray type="Float64" Name="fy" NumberOfComponents="1" format="ascii">
               0.0000000e+00    0.0000000e+00    0.0000000e+00    0.0000000e+00    0.0000000e+00    0.0000000e+00    0.0000000e+00    0.0000000e+00    0.0000000e+00
            </DataArray>
            <DataArray type="Float64" Name="uz" NumberOfComponents="1" format="ascii">
               0.0000000e+00    0.0000000e+00    0.0000000e+00    0.0000000e+00    0.0000000e+00   -9.4782058e-03    0.0000000e+00    0.0000000e+00    0.0000000e+00
            </DataArray>
            <DataArray type="Float64" Name="fz" NumberOfComponents="1" format="ascii">
               1.1997305e+01   -1.3740331e+01    3.9745720e+01    1.1997305e+01    1.1997305e+01   -1.0000000e+02    3.9745720e+01   -1.3740331e+01    1.1997305e+01
            </DataArray>
            <DataArray type="Float64" Name="rx" NumberOfComponents="1" format="ascii">
               0.0000000e+00    0.0000000e+00    0.0000000e+00    0.0000000e+00    0.0000000e+00   -9.3174860e-21    0.0000000e+00    0.0000000e+00    0.0000000e+00
            </DataArray>
            <DataArray type="Float64" Name="mx" NumberOfComponents="1" format="ascii">
               -2.1582262e+02    1.8327158e+02   -1.0721460e+03    3.0745840e+02   -3.0973917e+02    1.1368684e-13    1.0721460e+03   -1.8327158e+02    2.1810338e+02
            </DataArray>
            <DataArray type="Float64" Name="ry" NumberOfComponents="1" format="ascii">
               0.0000000e+00    0.0000000e+00    0.0000000e+00    0.0000000e+00    0.0000000e+00    7.8879911e-03    0.0000000e+00    0.0000000e+00    0.0000000e+00
            </DataArray>
            <DataArray type="Float64" Name="my" NumberOfComponents="1" format="ascii">
               1.0880397e-01    1.0987752e+01   -1.1205359e+01    1.0880397e-01    1.0880397e-01   -8.3178614e-16   -1.1205359e+01    1.0987752e+01    1.0880397e-01
            </DataArray>
            <DataArray type="Float64" Name="U" NumberOfComponents="3" format="ascii">
               0.0000000e+00    0.0000000e+00    0.0000000e+00    0.0000000e+00    0.0000000e+00    0.0000000e+00    0.0000000e+00    0.0000000e+00    0.0000000e+00    0.0000000e+00    0.0000000e+00    0.0000000e+00    0.0000000e+00    0.0000000e+00    0.0000000e+00    0.0000000e+00    0.0000000e+00   -9.4782058e-03    0.0000000e+00    0.0000000e+00    0.0000000e+00    0.0000000e+00    0.0000000e+00    0.0000000e+00    0.0000000e+00    0.0000000e+00    0.0000000e+00
            </DataArray>
         </PointData>
         <CellData>
            <DataArray type="Int32" Name="elem-id" NumberOfComponents="1" format="ascii">
               1  2  3  4  
            </DataArray>
            <DataArray type="Int32" Name="cell-type" NumberOfComponents="1" format="ascii">
               9  9  9  9  
            </DataArray>
         </CellData>
      </Piece>
   </UnstructuredGrid>
</VTKFile>
