<?xml version="1.0"?>
<VTKFile type="UnstructuredGrid" version="0.1" byte_order="LittleEndian">
   <UnstructuredGrid>
      <Piece NumberOfPoints="252" NumberOfCells="120">
         <Points>
            <DataArray type="Float64" NumberOfComponents="3" format="ascii">
               0.0000000e+00     0.0000000e+00     0.0000000e+00
               0.0000000e+00     5.0000000e-02     0.0000000e+00
               0.0000000e+00     0.0000000e+00     3.3333330e-02
               5.0000000e-02     0.0000000e+00     0.0000000e+00
               0.0000000e+00     1.0000000e-01     0.0000000e+00
               0.0000000e+00     0.0000000e+00     6.6666670e-02
               1.0000000e-01     0.0000000e+00     0.0000000e+00
               5.0000000e-02     0.0000000e+00     3.3333330e-02
               0.0000000e+00     5.0000000e-02     3.3333330e-02
               5.0000000e-02     5.0000000e-02     0.0000000e+00
               0.0000000e+00     0.0000000e+00     1.0000000e-01
               1.5000000e-01     0.0000000e+00     0.0000000e+00
               5.0000000e-02     1.0000000e-01     0.0000000e+00
               0.0000000e+00     1.0000000e-01     3.3333330e-02
               1.0000000e-01     5.0000000e-02     0.0000000e+00
               1.0000000e-01     0.0000000e+00     3.3333330e-02
               5.0000000e-02     0.0000000e+00     6.6666670e-02
               0.0000000e+00     5.0000000e-02     6.6666670e-02
               5.0000000e-02     5.0000000e-02     3.3333330e-02
               2.0000000e-01     0.0000000e+00     0.0000000e+00
               0.0000000e+00     1.0000000e-01     6.6666670e-02
               1.0000000e-01     1.0000000e-01     0.0000000e+00
               5.0000000e-02     0.0000000e+00     1.0000000e-01
               0.0000000e+00     5.0000000e-02     1.0000000e-01
               1.5000000e-01     0.0000000e+00     3.3333330e-02
               1.5000000e-01     5.0000000e-02     0.0000000e+00
               5.0000000e-02     1.0000000e-01     3.3333330e-02
               1.0000000e-01     0.0000000e+00     6.6666670e-02
               5.0000000e-02     5.0000000e-02     6.6666670e-02
               1.0000000e-01     5.0000000e-02     3.3333330e-02
               0.0000000e+00     1.0000000e-01     1.0000000e-01
               2.5000000e-01     0.0000000e+00     0.0000000e+00
               1.5000000e-01     1.0000000e-01     0.0000000e+00
               1.0000000e-01     0.0000000e+00     1.0000000e-01
               2.0000000e-01     0.0000000e+00     3.3333330e-02
               1.5000000e-01     0.0000000e+00     6.6666670e-02
               1.0000000e-01     1.0000000e-01     3.3333330e-02
               5.0000000e-02     5.0000000e-02     1.0000000e-01
               5.0000000e-02     1.0000000e-01     6.6666670e-02
               2.0000000e-01     5.0000000e-02     0.0000000e+00
               1.5000000e-01     5.0000000e-02     3.3333330e-02
               1.0000000e-01     5.0000000e-02     6.6666670e-02
               2.0000000e-01     1.0000000e-01     0.0000000e+00
               5.0000000e-02     1.0000000e-01     1.0000000e-01
               3.0000000e-01     0.0000000e+00     0.0000000e+00
               1.5000000e-01     0.0000000e+00     1.0000000e-01
               1.0000000e-01     5.0000000e-02     1.0000000e-01
               1.0000000e-01     1.0000000e-01     6.6666670e-02
               2.5000000e-01     0.0000000e+00     3.3333330e-02
               1.5000000e-01     1.0000000e-01     3.3333330e-02
               2.5000000e-01     5.0000000e-02     0.0000000e+00
               2.0000000e-01     0.0000000e+00     6.6666670e-02
               2.0000000e-01     5.0000000e-02     3.3333330e-02
               1.5000000e-01     5.0000000e-02     6.6666670e-02
               3.5000000e-01     0.0000000e+00     0.0000000e+00
               1.0000000e-01     1.0000000e-01     1.0000000e-01
               2.5000000e-01     1.0000000e-01     0.0000000e+00
               2.0000000e-01     0.0000000e+00     1.0000000e-01
               2.0000000e-01     1.0000000e-01     3.3333330e-02
               3.0000000e-01     5.0000000e-02     0.0000000e+00
               1.5000000e-01     5.0000000e-02     1.0000000e-01
               1.5000000e-01     1.0000000e-01     6.6666670e-02
               3.0000000e-01     0.0000000e+00     3.3333330e-02
               2.5000000e-01     0.0000000e+00     6.6666670e-02
               2.5000000e-01     5.0000000e-02     3.3333330e-02
               2.0000000e-01     5.0000000e-02     6.6666670e-02
               2.5000000e-01     0.0000000e+00     1.0000000e-01
               3.0000000e-01     1.0000000e-01     0.0000000e+00
               4.0000000e-01     0.0000000e+00     0.0000000e+00
               1.5000000e-01     1.0000000e-01     1.0000000e-01
               3.0000000e-01     0.0000000e+00     6.6666670e-02
               2.0000000e-01     1.0000000e-01     6.6666670e-02
               2.5000000e-01     1.0000000e-01     3.3333330e-02
               2.0000000e-01     5.0000000e-02     1.0000000e-01
               3.5000000e-01     5.0000000e-02     0.0000000e+00
               3.5000000e-01     0.0000000e+00     3.3333330e-02
               2.5000000e-01     5.0000000e-02     6.6666670e-02
               3.0000000e-01     5.0000000e-02     3.3333330e-02
               3.0000000e-01     0.0000000e+00     1.0000000e-01
               3.5000000e-01     1.0000000e-01     0.0000000e+00
               4.5000000e-01     0.0000000e+00     0.0000000e+00
               2.0000000e-01     1.0000000e-01     1.0000000e-01
               4.0000000e-01     0.0000000e+00     3.3333330e-02
               4.0000000e-01     5.0000000e-02     0.0000000e+00
               3.0000000e-01     1.0000000e-01     3.3333330e-02
               2.5000000e-01     5.0000000e-02     1.0000000e-01
               2.5000000e-01     1.0000000e-01     6.6666670e-02
               3.5000000e-01     0.0000000e+00     6.6666670e-02
               3.0000000e-01     5.0000000e-02     6.6666670e-02
               3.5000000e-01     5.0000000e-02     3.3333330e-02
               3.5000000e-01     0.0000000e+00     1.0000000e-01
               5.0000000e-01     0.0000000e+00     0.0000000e+00
               2.5000000e-01     1.0000000e-01     1.0000000e-01
               4.0000000e-01     1.0000000e-01     0.0000000e+00
               3.0000000e-01     1.0000000e-01     6.6666670e-02
               4.0000000e-01     0.0000000e+00     6.6666670e-02
               4.5000000e-01     5.0000000e-02     0.0000000e+00
               4.5000000e-01     0.0000000e+00     3.3333330e-02
               3.0000000e-01     5.0000000e-02     1.0000000e-01
               3.5000000e-01     1.0000000e-01     3.3333330e-02
               3.5000000e-01     5.0000000e-02     6.6666670e-02
               4.0000000e-01     5.0000000e-02     3.3333330e-02
               4.5000000e-01     1.0000000e-01     0.0000000e+00
               5.5000000e-01     0.0000000e+00     0.0000000e+00
               4.0000000e-01     0.0000000e+00     1.0000000e-01
               3.0000000e-01     1.0000000e-01     1.0000000e-01
               3.5000000e-01     1.0000000e-01     6.6666670e-02
               4.0000000e-01     1.0000000e-01     3.3333330e-02
               5.0000000e-01     5.0000000e-02     0.0000000e+00
               4.5000000e-01     0.0000000e+00     6.6666670e-02
               5.0000000e-01     0.0000000e+00     3.3333330e-02
               3.5000000e-01     5.0000000e-02     1.0000000e-01
               4.5000000e-01     5.0000000e-02     3.3333330e-02
               4.0000000e-01     5.0000000e-02     6.6666670e-02
               4.5000000e-01     0.0000000e+00     1.0000000e-01
               5.0000000e-01     1.0000000e-01     0.0000000e+00
               3.5000000e-01     1.0000000e-01     1.0000000e-01
               6.0000000e-01     0.0000000e+00     0.0000000e+00
               4.0000000e-01     1.0000000e-01     6.6666670e-02
               5.5000000e-01     0.0000000e+00     3.3333330e-02
               5.0000000e-01     0.0000000e+00     6.6666670e-02
               4.0000000e-01     5.0000000e-02     1.0000000e-01
               4.5000000e-01     1.0000000e-01     3.3333330e-02
               5.5000000e-01     5.0000000e-02     0.0000000e+00
               5.0000000e-01     5.0000000e-02     3.3333330e-02
               4.5000000e-01     5.0000000e-02     6.6666670e-02
               5.0000000e-01     0.0000000e+00     1.0000000e-01
               6.5000000e-01     0.0000000e+00     0.0000000e+00
               5.5000000e-01     1.0000000e-01     0.0000000e+00
               4.0000000e-01     1.0000000e-01     1.0000000e-01
               4.5000000e-01     5.0000000e-02     1.0000000e-01
               4.5000000e-01     1.0000000e-01     6.6666670e-02
               5.5000000e-01     0.0000000e+00     6.6666670e-02
               6.0000000e-01     0.0000000e+00     3.3333330e-02
               6.0000000e-01     5.0000000e-02     0.0000000e+00
               5.0000000e-01     1.0000000e-01     3.3333330e-02
               5.5000000e-01     5.0000000e-02     3.3333330e-02
               5.0000000e-01     5.0000000e-02     6.6666670e-02
               6.0000000e-01     1.0000000e-01     0.0000000e+00
               5.5000000e-01     0.0000000e+00     1.0000000e-01
               4.5000000e-01     1.0000000e-01     1.0000000e-01
               7.0000000e-01     0.0000000e+00     0.0000000e+00
               6.5000000e-01     5.0000000e-02     0.0000000e+00
               5.0000000e-01     1.0000000e-01     6.6666670e-02
               5.0000000e-01     5.0000000e-02     1.0000000e-01
               5.5000000e-01     1.0000000e-01     3.3333330e-02
               6.5000000e-01     0.0000000e+00     3.3333330e-02
               6.0000000e-01     0.0000000e+00     6.6666670e-02
               5.5000000e-01     5.0000000e-02     6.6666670e-02
[...]
         <PointData>
            <DataArray type="Int32" Name="node-id" NumberOfComponents="1" format="ascii">
               1  2  3  4  5  6  7  8  9  10  11  12  13  14  15  16  17  18  19  20  21  22  23  24  25  26  27  28  29  30  31  32  33  34  35  36  37  38  39  40  41  42  43  44  45  46  47  48  49  50  51  52  53  54  55  56  57  58  59  60  61  62  63  64  65  66  67  68  69  70  71  72  73  74  75  76  77  78  79  80  81  82  83  84  85  86  87  88  89  90  91  92  93  94  95  96  97  98  99  100  101  102  103  104  105  106  107  108  109  110  111  112  113  114  115  116  117  118  119  120  121  122  123  124  125  126  127  128  129  130  131  132  133  134  135  136  137  138  139  140  141  142  143  144  145  146  147  148  149  150  151  152  153  154  155  156  157  158  159  160  161  162  163  164  165  166  167  168  169  170  171  172  173  174  175  176  177  178  179  180  181  182  183  184  185  186  187  188  189  190  191  192  193  194  195  196  197  198  199  200  201  202  203  204  205  206  207  208  209  210  211  212  213  214  215  216  217  218  219  220  221  222  223  224  225  226  227  228  229  230  231  232  233  234  235  236  237  238  239  240  241  242  243  244  245  246  247  248  249  250  251  252  
            </DataArray>
            <DataArray type="Float64" Name="ux" NumberOfComponents="1" format="ascii">
               0.0000000e+00    0.0000000e+00    0.0000000e+00   -3.2747013e-04    0.0000000e+00    0.0000000e+00   -7.2698557e-04   -1.0866635e-04    0.0000000e+00   -3.0459045e-04    0.0000000e+00   -1.0783595e-03   -3.2747013e-04    0.0000000e+00   -7.3212874e-04   -2.4333423e-04    1.0866635e-04    0.0000000e+00   -9.9575336e-05   -1.3470650e-03    0.0000000e+00   -7.2698557e-04    3.2747013e-04    0.0000000e+00   -3.5916385e-04   -1.0906584e-03   -1.0866635e-04    2.4333423e-04    9.9575336e-05   -2.4464302e-04    0.0000000e+00   -1.5525528e-03   -1.0783595e-03    7.2698557e-04   -4.4712372e-04    3.5916385e-04   -2.4333423e-04    3.0459045e-04    1.0866635e-04   -1.3541738e-03   -3.6350661e-04    2.4464302e-04   -1.3470650e-03    3.2747013e-04   -1.7239093e-03    1.0783595e-03    7.3212874e-04    2.4333423e-04   -5.1498396e-04   -3.5916385e-04   -1.5563212e-03    4.4712372e-04   -4.5055820e-04    3.6350661e-04   -1.8694481e-03    7.2698557e-04   -1.5525528e-03    1.3470650e-03   -4.4712372e-04   -1.7261436e-03    1.0906584e-03    3.5916385e-04   -5.7240628e-04    5.1498396e-04   -5.1715004e-04    4.5055820e-04    1.5525528e-03   -1.7239093e-03   -2.0027563e-03    1.0783595e-03    5.7240628e-04    4.4712372e-04   -5.1498396e-04    1.3541738e-03   -1.8703762e-03   -6.2192616e-04    5.1715004e-04   -5.7363574e-04    1.7239093e-03   -1.8694481e-03   -2.1251456e-03    1.3470650e-03   -6.6633913e-04   -2.0032406e-03   -5.7240628e-04    1.5563212e-03    5.1498396e-04    6.2192616e-04    5.7363574e-04   -6.2254723e-04    1.8694481e-03   -2.2369144e-03    1.5525528e-03   -2.0027563e-03    5.7240628e-04    6.6633913e-04   -2.1256623e-03   -7.0715195e-04    1.7261436e-03   -6.2192616e-04    6.2254723e-04   -6.6665589e-04   -2.1251456e-03   -2.3380376e-03    2.0027563e-03    1.7239093e-03    6.2192616e-04   -6.6633913e-04   -2.2374317e-03    7.0715195e-04   -7.4440351e-04    1.8703762e-03   -7.0747262e-04    6.6665589e-04    2.1251456e-03   -2.2369144e-03    1.8694481e-03   -2.4285167e-03    6.6633913e-04   -7.7811221e-04    7.4440351e-04    2.0032406e-03   -7.0715195e-04   -2.3385554e-03   -7.4473117e-04    7.0747262e-04    2.2369144e-03   -2.5083511e-03   -2.3380376e-03    2.0027563e-03    2.1256623e-03    7.0715195e-04    7.7811221e-04   -8.0827181e-04   -2.4290343e-03   -7.4440351e-04   -7.7843829e-04    7.4473117e-04   -2.4285167e-03    2.3380376e-03    2.1251456e-03   -2.5775412e-03   -2.5088687e-03    7.4440351e-04    2.2374317e-03   -7.7811221e-04   -8.3488331e-04    8.0827181e-04    7.7843829e-04   -8.0859812e-04   -2.5083511e-03   -2.6360862e-03    2.2369144e-03    2.4285167e-03   -8.5794658e-04    7.7811221e-04   -2.5780585e-03   -8.0827181e-04    2.3385554e-03    8.3488331e-04    8.0859812e-04   -8.3520956e-04   -2.6839869e-03    2.5083511e-03   -2.5775412e-03    2.3380376e-03   -8.7746163e-04    2.4290343e-03    8.5794658e-04   -2.6366038e-03   -8.3488331e-04    8.0827181e-04   -8.5827283e-04    8.3520956e-04   -2.6360862e-03    2.5775412e-03   -2.7212433e-03    2.4285167e-03    2.5088687e-03    8.3488331e-04   -8.9342875e-04   -2.6845043e-03   -8.5794658e-04    8.7746163e-04    8.5827283e-04   -8.7778794e-04   -2.7478449e-03   -2.6839869e-03    2.5083511e-03    2.6360862e-03   -9.0584642e-04   -8.7746163e-04   -2.7217607e-03    2.5780585e-03    8.9342875e-04    8.5794658e-04    8.7778794e-04   -8.9375471e-04   -2.7638820e-03   -2.7212433e-03    2.6839869e-03    2.5775412e-03   -8.9342875e-04    8.7746163e-04   -9.1471581e-04   -2.7483809e-03    9.0584642e-04    2.6366038e-03    8.9375471e-04   -9.0617401e-04   -2.7693631e-03   -2.7478449e-03    2.6360862e-03    2.7212433e-03   -9.0584642e-04   -9.2006795e-04   -2.7642630e-03    9.1471581e-04    2.6845043e-03    8.9342875e-04   -9.1504725e-04    9.0617401e-04   -9.2190673e-04    2.7478449e-03   -2.7638820e-03   -2.7695701e-03    2.6839869e-03    9.2006795e-04    9.0584642e-04    2.7217607e-03   -9.1471581e-04    9.1504725e-04   -9.2032930e-04   -2.7693631e-03    2.7638820e-03    9.2190673e-04    2.7212433e-03   -9.2209614e-04    2.7483809e-03   -9.2006795e-04    9.1471581e-04    9.2032930e-04    2.7693631e-03   -9.2190673e-04    2.7478449e-03    9.2006795e-04    2.7642630e-03    9.2209614e-04    2.7695701e-03    9.2190673e-04    2.7638820e-03    2.7693631e-03
            </DataArray>
            <DataArray type="Float64" Name="fx" NumberOfComponents="1" format="ascii">
               3.2096408e+02    5.8751428e+02    2.7964221e+02   -2.0228673e-03    3.2096408e+02   -2.7964221e+02   -1.3119914e-03    1.6315191e-03    4.9158081e+02   -1.7035841e-03   -3.2096408e+02    4.7527812e-04   -2.0228673e-03    2.7964221e+02   -2.9578398e-03    1.1934475e-03   -1.6315191e-03   -4.9158081e+02    2.8644975e-03    5.4680556e-04   -2.7964221e+02   -1.3119914e-03    2.0228673e-03   -5.8751428e+02   -2.4098578e-04    6.4484851e-04    1.6315191e-03   -1.1934475e-03   -2.8644975e-03    3.0389605e-03   -3.2096408e+02    7.9699865e-05    4.7527812e-04    1.3119914e-03   -2.8415080e-04    2.4098578e-04    1.1934475e-03    1.7035841e-03   -1.6315191e-03    5.8186398e-04   -2.0696244e-03   -3.0389605e-03    5.4680556e-04    2.0228673e-03    2.6130936e-06   -4.7527812e-04    2.9578398e-03   -1.1934475e-03   -4.6367131e-05   -2.4098578e-04    4.0628835e-05    2.8415080e-04   -1.3463844e-03    2.0696244e-03    5.1865594e-08    1.3119914e-03    7.9699865e-05   -5.4680556e-04   -2.8415080e-04   -9.6914910e-06   -6.4484851e-04    2.4098578e-04    9.5416647e-07    4.6367131e-05   -1.2199194e-04    1.3463844e-03   -7.9699865e-05    2.6130936e-06   -2.7866598e-14   -4.7527812e-04   -9.5416647e-07    2.8415080e-04   -4.6367131e-05   -5.8186398e-04   -4.5409262e-08   -3.6705849e-08    1.2199194e-04    2.4444552e-07   -2.6130936e-06    5.1865587e-08   -4.5963233e-14   -5.4680556e-04    7.1498363e-14   -7.6827433e-14    9.5416647e-07   -4.0628835e-05    4.6367131e-05    3.6705828e-08   -2.4444554e-07   -2.2351610e-08   -5.1865619e-08    5.4511951e-14   -7.9699865e-05    6.2172489e-15   -9.5416647e-07   -1.1379786e-14   -5.0848215e-14   -1.8873791e-15    9.6914910e-06   -3.6705860e-08    2.2351625e-08    3.6914916e-14   -2.4757973e-14   -1.6653345e-14    2.1871394e-14   -2.6130936e-06    3.6705860e-08    6.6613381e-16    4.9071858e-14   -3.2696068e-14    5.5511151e-17    4.5409255e-08   -5.7231997e-14    1.6986412e-14    1.7985613e-14   -3.3195668e-14   -5.1865619e-08   -9.2148511e-15   -9.9920072e-16    3.0392355e-14   -2.3869795e-14    1.8984814e-14   -1.4155344e-14    1.0524914e-13    5.8453242e-14    3.2751579e-15    3.3417713e-14   -3.9079850e-14    9.8143715e-14    1.1102230e-15   -6.7945649e-14   -1.4932500e-14   -1.1823875e-14   -5.3568261e-15    8.3266727e-15   -2.8754776e-14   -4.4408921e-15    6.3837824e-14   -4.3298698e-14   -3.7414516e-14    1.5432100e-14    1.5820678e-14   -7.0166095e-14   -1.7263968e-14    1.2501111e-13    4.1938675e-14   -1.3328227e-13    6.2394534e-14   -4.3631765e-14   -3.5194070e-14   -4.0190073e-14   -6.2283512e-14    2.8643754e-14    1.1990409e-14   -4.6490589e-14    5.9396932e-15    2.4424907e-14   -2.0233815e-14   -1.3566925e-13    3.8413717e-14   -3.1918912e-14   -9.0760732e-14    1.0275114e-13    9.3258734e-15   -5.5011551e-14   -4.0967230e-14    8.1212814e-14   -1.9428903e-14    8.3016927e-14    2.0039526e-14    7.5994766e-14   -3.3306691e-16   -4.7517545e-14   -2.4424907e-15    6.1062266e-14    2.0594637e-14   -2.4119595e-14   -3.7192471e-14    1.1568524e-13   -1.7458257e-14   -8.2767126e-14    3.2140957e-14   -4.5852211e-14    7.0138340e-14    4.0245585e-15    1.0430545e-13    3.0891956e-14   -8.1545881e-14    3.3972825e-14   -3.0642155e-14   -9.5798369e-14   -6.5308869e-14   -8.4016127e-14   -1.6098234e-14   -1.9209634e-13    1.7458257e-14    2.0372593e-14   -2.1432855e-13    3.4694470e-15   -1.6209256e-14   -2.7811087e-14   -1.3766766e-14   -9.1593400e-15    5.3013149e-15   -2.1330160e-14   -5.7981397e-14    6.7154615e-14    1.0358381e-13    2.6395552e-14   -7.5037199e-14    4.5006967e-14   -1.8596236e-14    7.2941653e-14    5.2180482e-15    5.5885852e-14    6.2061467e-14    4.4728110e-14    9.1537888e-14   -8.4987573e-14    9.1912589e-14    4.0897841e-14    1.7354868e-13    8.6847196e-14   -7.4440454e-14    1.1199375e-14    1.9483547e-13   -1.2712054e-13    8.0060958e-14    1.6283502e-13   -9.1981978e-14   -2.8865799e-15    6.4233341e-14    5.1375570e-14    1.9454924e-14   -3.0614400e-14   -1.1079332e-13    2.2204460e-16   -8.4869611e-14   -9.7144515e-16    2.9518055e-14   -2.1788127e-15    3.1124409e-14    1.4968929e-14    9.9226183e-16    3.2557290e-14   -6.1287780e-14    4.2757464e-14   -2.0831253e-13    3.9297558e-14   -3.0024594e-14    1.0963452e-15   -3.9593329e-14
            </DataArray>
            <DataArray type="Float64" Name="uy" NumberOfComponents="1" format="ascii">
               0.0000000e+00    0.0000000e+00    0.0000000e+00   -1.4462550e-04    0.0000000e+00    0.0000000e+00   -1.5073677e-04   -3.4877608e-05    0.0000000e+00    1.6072461e-19    0.0000000e+00   -1.0556271e-04    1.4462550e-04    0.0000000e+00    6.9823029e-19   -3.7150701e-05    3.4877608e-05    0.0000000e+00    8.3501343e-20   -6.6042085e-05    0.0000000e+00    1.5073677e-04    1.4462550e-04    0.0000000e+00   -2.7565246e-05    1.1465044e-18    3.4877608e-05    3.7150701e-05   -2.3892708e-20    4.6283831e-19    0.0000000e+00   -4.4599041e-05    1.0556271e-04    1.5073677e-04   -1.8100520e-05    2.7565246e-05    3.7150701e-05   -1.8159751e-19   -3.4877608e-05    1.8458715e-18    8.3656110e-19    2.1411213e-19    6.6042085e-05   -1.4462550e-04   -3.2032887e-05    1.0556271e-04   -1.1423880e-19   -3.7150701e-05   -1.3235963e-05    2.7565246e-05    2.4544792e-18    1.8100520e-05    1.3561212e-18    5.3214943e-19   -2.5483598e-05   -1.5073677e-04    4.4599041e-05    6.6042085e-05    1.8100520e-05    2.8659074e-18    2.7386957e-19   -2.7565246e-05   -1.0679033e-05    1.3235963e-05    1.9395913e-18    8.8685973e-19    4.4599041e-05    3.2032887e-05   -2.3630788e-05   -1.0556271e-04    1.0679033e-05   -1.8100520e-05    1.3235963e-05    4.4680295e-19    3.1125382e-18   -9.0983967e-06    1.3751206e-18    2.3278620e-18    3.2032887e-05    2.5483598e-05   -2.1664266e-05   -6.6042085e-05   -8.3248560e-06    3.3386374e-18    1.0679033e-05    8.6853354e-19   -1.3235963e-05    9.0983967e-06    1.8101135e-18    2.6557814e-18    2.5483598e-05   -1.9697512e-05   -4.4599041e-05    2.3630788e-05   -1.0679033e-05    8.3248560e-06    3.9964243e-18   -7.6662745e-06    1.2053349e-18    9.0983967e-06    2.2721979e-18    2.6965176e-18    2.1664266e-05   -1.7726605e-05    2.3630788e-05   -3.2032887e-05   -9.0983967e-06    8.3248560e-06    4.7662498e-18    7.6662745e-06   -6.9631960e-06    1.7191804e-18    2.6289409e-18    2.2507928e-18    2.1664266e-05    1.9697512e-05   -2.5483598e-05   -1.5757196e-05   -8.3248560e-06   -6.2676977e-06    6.9631960e-06    2.5940456e-18    7.6662745e-06    4.9956365e-18    3.5579987e-18    2.3617950e-18    1.9697512e-05   -1.3787519e-05    1.7726605e-05   -2.3630788e-05    2.7705831e-18   -7.6662745e-06    6.2676977e-06   -5.5711625e-06    4.5560343e-18    6.9631960e-06    3.4631866e-18    2.4764408e-18    1.5757196e-05    1.7726605e-05   -2.1664266e-05   -1.1817880e-05    5.0170187e-18   -6.9631960e-06    1.9492745e-18    6.2676977e-06   -4.8747893e-06    5.5711625e-06    2.8703719e-18    3.8718397e-18    1.3787519e-05   -9.8482005e-06   -1.9697512e-05    1.5757196e-05   -4.1783874e-06   -6.2676977e-06    4.8763923e-18    5.5711625e-06    1.8416539e-18    4.8747893e-06    2.8431877e-18    4.2882127e-18   -7.8786470e-06    1.3787519e-05    1.1817880e-05   -1.7726605e-05   -3.4819873e-06    2.3949335e-18    4.1783874e-06    3.9648797e-18    4.8747893e-06   -5.5711625e-06    4.5095997e-18    3.7603705e-18    9.8482005e-06    1.1817880e-05   -5.9097993e-06   -1.5757196e-05    1.3828402e-18   -4.8747893e-06   -2.7855313e-06    4.3182571e-18    4.1783874e-06    3.4819873e-06    3.3244571e-18    3.1873138e-18   -3.9352044e-06    7.8786470e-06   -1.3787519e-05    9.8482005e-06   -2.0900761e-06    3.4819873e-06    4.3184746e-18    1.9285997e-18    2.7855313e-06   -4.1783874e-06    2.2102450e-18    2.9193321e-18   -1.9096392e-06    5.9097993e-06    7.8786470e-06   -1.1817880e-05    2.7855313e-06   -3.4819873e-06   -1.3894135e-06    3.2829758e-18    2.0900761e-06    2.4734189e-18    2.5815988e-18    2.2137626e-18   -6.9587463e-07    3.9352044e-06   -9.8482005e-06    5.9097993e-06    2.0900761e-06   -6.7122033e-07    2.3614981e-18    1.3894135e-06    1.1692970e-18   -2.7855313e-06    9.3545566e-19    6.8010325e-19   -2.8615523e-07    3.9352044e-06    1.9096392e-06    2.4585987e-18   -7.8786470e-06    6.7122033e-07   -2.0900761e-06    1.7675754e-18    1.3894135e-06    6.7999436e-20    1.4281101e-18    6.9587463e-07    1.9096392e-06    2.8615523e-07   -5.9097993e-06    1.4397860e-18    2.1464872e-18    6.7122033e-07   -1.3894135e-06    6.0508572e-19    6.9587463e-07    2.8615523e-07   -3.9352044e-06   -6.7122033e-07    1.9426461e-18   -9.5702005e-20    9.3469310e-19   -2.8615523e-07   -1.9096392e-06   -6.9587463e-07
            </DataArray>
            <DataArray type="Float64" Name="fy" NumberOfComponents="1" format="ascii">
               1.1036400e+02   -1.1057821e-13    8.9157440e+01    2.4870515e-03   -1.1036400e+02   -8.9157440e+01    4.7579319e-03   -3.0690602e-03   -1.6983637e-13   -1.1926918e-13   -1.1036400e+02    3.1170817e-03   -2.4870515e-03   -8.9157440e+01    6.7515438e-15   -3.1861628e-03    3.0690602e-03    1.5204504e-13   -6.0530053e-13    4.2415422e-04    8.9157440e+01   -4.7579319e-03   -2.4870515e-03    2.1160851e-13   -2.8522338e-03   -1.3797991e-14    3.0690602e-03    3.1861628e-03   -6.0088740e-13   -2.2445934e-13    1.1036400e+02    5.1406507e-05   -3.1170817e-03   -4.7579319e-03   -8.5257820e-04    2.8522338e-03    3.1861628e-03   -8.5872282e-14   -3.0690602e-03    5.5126043e-14   -1.7763568e-13   -2.0998481e-13   -4.2415422e-04    2.4870515e-03    1.0826320e-05   -3.1170817e-03    3.8993114e-14   -3.1861628e-03   -2.4143152e-05    2.8522338e-03   -1.9803603e-14    8.5257820e-04    1.8943180e-14   -1.6488547e-13    6.3169409e-07    4.7579319e-03   -5.1406507e-05   -4.2415422e-04    8.5257820e-04    6.3907213e-15   -5.3707039e-15   -2.8522338e-03   -1.9739214e-06    2.4143152e-05    5.2777227e-14   -2.3800406e-14   -5.1406507e-05   -1.0826320e-05    5.1658981e-14    3.1170817e-03    1.9739214e-06   -8.5257820e-04    2.4143152e-05    9.2703623e-15    3.1049815e-14   -1.9123929e-07    2.7575164e-14    6.8868522e-14   -1.0826320e-05   -6.3169404e-07   -5.0357288e-14    4.2415422e-04   -4.2162454e-14    6.4018669e-14    1.9739214e-06   -6.2901073e-15   -2.4143152e-05    1.9123921e-07    4.8433479e-15    5.1229854e-14   -6.3169398e-07   -2.7824965e-14    5.1406507e-05   -2.5232854e-14   -1.9739214e-06    1.5813739e-14    9.2361882e-14   -1.1827345e-14   -1.5718329e-14    1.9123925e-07   -3.4016193e-14   -4.4374227e-14    1.7643872e-14    3.0646492e-14    5.6264021e-14    1.0826320e-05   -1.9123924e-07    5.9969391e-15   -3.1522528e-14   -2.7264649e-14    8.0309023e-14   -1.0087417e-14    1.4183099e-14   -4.3125226e-14    4.0811972e-14    3.7666918e-14    6.3169404e-07    6.4558602e-14   -2.7651492e-15    6.5321012e-14   -1.7930102e-14   -2.1858383e-14    1.9543395e-14   -5.3767754e-15   -6.5742550e-14   -1.0156806e-13    5.3855358e-14    1.1672174e-13   -6.9831294e-15   -3.8547290e-14    6.0314601e-14    1.1057127e-14   -1.0220991e-14   -5.0855153e-14    5.7052453e-14   -5.5042776e-15   -1.0537578e-13   -4.6801105e-14   -4.5870426e-14    6.3936703e-14   -6.9750629e-14    1.0541307e-13    3.9978437e-14    1.7321214e-14   -1.4615045e-14   -1.9515639e-15   -1.0026702e-13    8.1854662e-14   -7.2776854e-14   -1.7330234e-13   -1.2906776e-13   -1.4117180e-14    2.9518055e-14   -3.9320110e-14   -1.4110588e-13    3.6800424e-14   -7.5340775e-14    7.0029052e-14   -1.7748823e-14   -2.8210073e-14    7.4102183e-14   -3.3597257e-14    2.2655489e-14    3.8523872e-14   -6.0815936e-14    2.1321486e-14    1.5496285e-14   -2.5993964e-14    2.6666169e-14    1.7396935e-13    1.7005668e-13    1.0961718e-14    1.1300943e-13   -6.4599368e-14   -4.3695082e-14    5.0889848e-14    1.4968062e-14   -8.2581511e-15   -2.6237693e-15   -3.7637428e-14    6.0476797e-14    5.6835613e-14    7.1106315e-14    3.9128856e-14   -1.4475747e-13    1.8695115e-13   -1.1139614e-13    5.1785833e-14    1.2772769e-14    6.0908743e-14   -1.2769213e-13   -1.8350772e-14   -4.8292533e-14   -7.3607787e-14   -1.4627969e-13    6.4504825e-14   -4.9483247e-13   -8.7011995e-14   -1.8056737e-13   -9.2740052e-14    6.3811803e-14    9.3517208e-14   -2.9943062e-14    1.5825449e-14   -2.1220872e-13    9.4947921e-14   -4.9264412e-14    9.3093935e-15   -9.4379365e-14    2.1245419e-13   -1.0685281e-13   -1.5494550e-14    7.7276727e-14   -6.7077420e-14    1.3322416e-13    3.2233764e-14   -4.9439619e-14   -4.6297384e-14   -2.2201858e-14    1.1312175e-13    1.8321109e-13    1.3934166e-14    2.2523650e-14    4.5617156e-14    8.2826107e-14   -6.2673228e-14   -1.1072740e-14    6.7142906e-14   -6.3427128e-14    8.1874611e-15    3.4055224e-14    1.9197057e-13    3.9349600e-14    1.4357458e-13   -7.5633944e-16    3.1103592e-14    6.9670832e-14    5.8221006e-14   -1.2265015e-13    6.2240144e-14   -5.2201299e-14    1.5894404e-15    5.7167426e-14   -9.2602141e-14    1.1719792e-14   -1.3766115e-13    1.5201122e-13   -1.3003216e-13    1.2453726e-13   -1.0210192e-13   -8.2318700e-14    6.3901683e-14
            </DataArray>
            <DataArray type="Float64" Name="uz" NumberOfComponents="1" format="ascii">